Compiler and run-time data
===========================================================================
RASPA 2.0.38
Compiled as a 64-bits application
Compiler: gcc 9.2.0
Compile Date = Apr  5 2021, Compile Time = 20:28:34

Wed Apr  7 01:54:13 2021
Simulation started on Wednesday, April 07.
The start time was 01:54 AM.

Hostname:    The start time was 01:54 AM.
OS type:     The start time was 01:54 AM.
OS release:  The start time was 01:54 AM.
OS version:  The start time was 01:54 AM.

Simulation
===========================================================================
Dimensions: 3
Random number seed: 1617774852
RASPA directory set to: /gpfs_backup/gubbins_data/kshi3/RASPA2-master
String appended to output-files: 
Number of cycles: 30000
Number of initializing cycles: 30000
Number of equilibration cycles: 0
Print every: 1000
Triclinic boundary condition applied
Timestep: 0.000500
	Degrees of freedom:                        18
	Translational Degrees of freedom:          18
	Rotational Degrees of freedom:             0
	Degrees of freedom Framework:              0


Mutual consistent basic set of units:
======================================
Unit of temperature: Kelvin
Unit of length:      1e-10 [m]
Unit of time:        1e-12 [s]
Unit of mass:        1.66054e-27 [kg]
Unit of charge:      1.60218e-19 [C/particle]

Derived units and their conversion factors:
===========================================
Unit of energy:              1.66054e-23 [J]
Unit of force:               1.66054e-13 [N]
Unit of pressure:            1.66054e+07 [Pa]
Unit of velocity:            100 [m/s]
Unit of acceleration:        1e-08 [m^2/s]
Unit of diffusion:           1e-08 [m^2/s]
Unit of dipole moment:       1.60218e-29 [C.m]
Unit of electric potential:  0.000103643 [V]
Unit of electric field:      1.03643e+06 [V]
Unit of polarizability:      1.54587e-35 [-]
Unit of Coulomb potential:   167101.0800066561  [K]
Unit of dielectric constant: 0.0000154587       [s^2 C^2/(kg m^3)]
Unit of wave vectors:        5.3088374589       [cm^1]
Boltzmann constant:          0.8314464919       [-]

Internal conversion factors:
===========================================
Energy to Kelvin:                                    1.2027242847
FH correction factor                                 2.0211930949
Heat capacity conversion factor:                    10.0000088723
From Debye to internal units:                        4.8032067991
Isothermal compressibility conversion factor:        0.0000000602

Energy conversion factors:
===========================================
From mdyne/A to kcal/mol/A^2:           143.933
From mdyne/A to kj/mol/A^2:             602.214
From mdyne/A to K/A^2:                  72429.7
From mdyne A/rad^2 to kcal/mol/deg^2:   0.0438444


Properties computed
===========================================================================
Movies: no
Radial Distribution Function: no
Number of molecules GCMC histogram: no
Histogram of the molecule positions: no
Free energy profiles: no
Pore Size Distribution Function: no
End-to-end distance: no
Histogram of the energy of the system: no
Compute thermodynamic factors: no
Framework spacing histograms: no
Residence times histograms: no
Distance histograms: no
Bend Angle histograms: no
Dihedral angle histograms: no
Angle between planes histograms: no
Molecule properties: no
Infra-red spectra: no
Mean-squared displacement using modified order-N algorithm: no
Velocity-autocorrelation function modified order-N algorithm: no
Rotational velocity-autocorrelation function modified order-N algorithm: no
Molecular orientation-autocorrelation function modified order-N algorithm: no
Bond orientation-autocorrelation function modified order-N algorithm: no
Mean-squared displacement (conventional algorithm): no
Velocity-autocorrelation function (conventional algorithm): no
3D density grid for adsorbates: no
Compute cation an/or adsorption sites: no
dcTST snapshots: no
Compute pressure and stress: no


VTK
===========================================================================
VTK fractional-range position framework atoms: [-0.001000,1.001000] [-0.001000,1.001000] [-0.001000,1.001000]
VTK fractional-range position framework bonds: [-0.151000,1.151000] [-0.151000,1.151000] [-0.151000,1.151000]
VTK fractional-range com-position adsorbate molecules: [-0.101000,1.101000] [-0.101000,1.101000] [-0.101000,1.101000]
VTK fractional-range com-position cation molecules: [-0.101000,1.101000] [-0.101000,1.101000] [-0.101000,1.101000]
	3D free energy grid made for the full simulation-cell


Thermo/Baro-stat NHC parameters
===========================================================================
External temperature: 495.6 [K]
Beta: 0.0024268 [energy unit]
External Pressure: 1e+06 [Pa]


Thermostat chain-length: 3
Timescale parameter for thermostat: 0.150000 [ps]
Barostat chain-length:   3
Timescale parameter for barostat:   0.150000 [ps]

Number of Yoshida-Suzuki decomposition steps: 5
Number of respa steps: 5


Method and settings for electrostatics
===============================================================================
Dielectric constant of the medium : 1.000000
Charge from charge-equilibration: no
No electrostatics


CFC-RXMC parameters
===========================================================================
Number of reactions: 0


Rattle parameters
===========================================================================
Distance constraint type: r^2-r^2_0
Bend angle constraint type: theta-theta_0
Dihedral angle constraint type: phi-phi_0
Inversion-bend angle constraint type: chi-chi_0
Out-of-plane distance constraint type: r-r_0


Spectra parameters
===========================================================================
Compute normal modes: no


Minimization parameters
===========================================================================
Generalized coordinates are: Cartesian center-of-mass, elements of the orientational matrix p1,p2,p3 and strain
Potential derivatives are evaluated: analytically
Translation of the system is removed from the generalized Hessian: no
Rotation of the system is removed from the generalized Hessian: no
Maximum step-length: 0.3
Convergence factor: 1
Maximum number of minimization steps: 10000
Use gradients in the line-minimizations: yes
RMS gradient tolerance: 1e-06
Maximum gradient tolerance: 1e-06

Distance constraints: 0
Angle constraints: 0
Dihedral constraints: 0

Improper dihedral constraints: 0

Inversion-bend constraints: 0

Out-of-plane constraints: 0

Harmonic distance constraints: 0
Harmonic angle constraints: 0
Harmonic dihedral constraints: 0

Dihedral mid-point measurements: 0

All framework atoms are fixed

Fixed adsorbate atoms:  
Fixed adsorbate groups (center-of-mass):  
Fixed adsorbate groups (orientation):  

Fixed cation atoms:  
Fixed cation groups (center-of-mass):  
Fixed cation groups (orientation):  


dcTST parameters
===========================================================================
Free energy profiles computed: no
Free energy profiles written every 5000 cycles
Free energy mapping: mapped to a,b,c-coordinates
BarrierPosition:       0.0000000000       0.0000000000       0.0000000000
BarrierNormal:         0.0000000000       0.0000000000       0.0000000000
Start with a molecule on top of the barrier: no
Maximum distance to barrier (e.g. distance to minumum free energy):       0.0000000000 [A]
Maximum trajectory time:      10.0000000000 [ps]
Each configuration is used with 5 different initial velocities


Cbmc parameters
===========================================================================
Biasing method: using only the VDW part
Number of trial positions:                                       10
Number of trial positions (reinsertion):                         10
Number of trial positions (partial reinsertion):                 10
Number of trial positions (identity-change):                     10
Number of trial positions (Gibbs particle transfer):             10
Number of trial positions (insertion/deletion):                  10
Number of trial positions (Widom insertion):                     10
Number of trial positions coupled Torsion-selection:             100
Number of trial positions first bead:                            10
Number of trial positions first bead (reinsertion):              10
Number of trial positions first bead (partial reinsertion):      10
Number of trial positions first bead (identity-change):          10
Number of trial positions first bead (Gibbs particle transfer):  10
Number of trial positions first bead (insertion/deletion):       10
Number of trial positions first bead (Widom insertion):          10
Number of trial moves per open bead:                             150
Target acceptance ratio small-mc scheme:                         0.400000
Energy overlap criteria:                                         1e+07
Minimal Rosenbluth factor:                                       1e-150


Pseudo atoms: 129
===========================================================================
Pseudo Atom[   0] Name UNIT     Oxidation:          Element: H    pdb-name: H    Scat. Types:   1   1 Mass=1.000000000  B-factor:0.000   
                 Charge=1.000000000          Polarization=0.000000000  [A^3] (considered a charged atom and no polarization)  Interactions: yes
                 Anisotropic factor:    0.000 [-] (Absolute), Radius:    1.000 [A], Framework-atom:  no
Pseudo Atom[   1] Name Ac_      Oxidation: +0       Element: Ac   pdb-name: Ac   Scat. Types:  90  89 Mass=227.000000000 B-factor:1.000   
                 Charge=0.000000000          Polarization=0.000000000  [A^3] (considered a chargeless atom and no polarization)  Interactions: yes
                 Anisotropic factor:    0.000 [-] (Relative), Radius:    1.000 [A], Framework-atom:  no
Pseudo Atom[   2] Name Ag_      Oxidation: +0       Element: Ag   pdb-name: Ag   Scat. Types:  48  47 Mass=107.868000000 B-factor:1.000   
                 Charge=0.000000000          Polarization=0.000000000  [A^3] (considered a chargeless atom and no polarization)  Interactions: yes
                 Anisotropic factor:    0.000 [-] (Relative), Radius:    1.000 [A], Framework-atom:  no
Pseudo Atom[   3] Name Al_      Oxidation: +0       Element: Al   pdb-name: Al   Scat. Types:  14  13 Mass=26.982000000 B-factor:1.000   
                 Charge=0.000000000          Polarization=0.000000000  [A^3] (considered a chargeless atom and no polarization)  Interactions: yes
                 Anisotropic factor:    0.000 [-] (Relative), Radius:    1.000 [A], Framework-atom:  no
Pseudo Atom[   4] Name Am_      Oxidation: +0       Element: Am   pdb-name: Am   Scat. Types:  96  95 Mass=243.000000000 B-factor:1.000   
                 Charge=0.000000000          Polarization=0.000000000  [A^3] (considered a chargeless atom and no polarization)  Interactions: yes
                 Anisotropic factor:    0.000 [-] (Relative), Radius:    1.000 [A], Framework-atom:  no
Pseudo Atom[   5] Name Ar_      Oxidation: +0       Element: Ar   pdb-name: Ar   Scat. Types:  19  18 Mass=39.948000000 B-factor:1.000   
                 Charge=0.000000000          Polarization=0.000000000  [A^3] (considered a chargeless atom and no polarization)  Interactions: yes
                 Anisotropic factor:    0.000 [-] (Relative), Radius:    1.000 [A], Framework-atom:  no
Pseudo Atom[   6] Name As_      Oxidation: +0       Element: As   pdb-name: As   Scat. Types:  34  33 Mass=74.922000000 B-factor:1.000   
                 Charge=0.000000000          Polarization=0.000000000  [A^3] (considered a chargeless atom and no polarization)  Interactions: yes
                 Anisotropic factor:    0.000 [-] (Relative), Radius:    1.000 [A], Framework-atom:  no
Pseudo Atom[   7] Name At_      Oxidation: +0       Element: At   pdb-name: At   Scat. Types:  86  85 Mass=210.000000000 B-factor:1.000   
                 Charge=0.000000000          Polarization=0.000000000  [A^3] (considered a chargeless atom and no polarization)  Interactions: yes
                 Anisotropic factor:    0.000 [-] (Relative), Radius:    1.000 [A], Framework-atom:  no
Pseudo Atom[   8] Name Au_      Oxidation: +0       Element: Au   pdb-name: Au   Scat. Types:  80  79 Mass=196.967000000 B-factor:1.000   
                 Charge=0.000000000          Polarization=0.000000000  [A^3] (considered a chargeless atom and no polarization)  Interactions: yes
                 Anisotropic factor:    0.000 [-] (Relative), Radius:    1.000 [A], Framework-atom:  no
Pseudo Atom[   9] Name B_       Oxidation: +0       Element: B    pdb-name: B    Scat. Types:   6   4 Mass=10.811000000 B-factor:1.000   
                 Charge=0.000000000          Polarization=0.000000000  [A^3] (considered a chargeless atom and no polarization)  Interactions: yes
                 Anisotropic factor:    0.000 [-] (Relative), Radius:    1.000 [A], Framework-atom:  no
Pseudo Atom[  10] Name Ba_      Oxidation: +0       Element: Ba   pdb-name: Ba   Scat. Types:  57  56 Mass=137.327000000 B-factor:1.000   
                 Charge=0.000000000          Polarization=0.000000000  [A^3] (considered a chargeless atom and no polarization)  Interactions: yes
                 Anisotropic factor:    0.000 [-] (Relative), Radius:    1.000 [A], Framework-atom:  no
Pseudo Atom[  11] Name Be_      Oxidation: +0       Element: Be   pdb-name: Be   Scat. Types:   5   4 Mass=9.012000000  B-factor:1.000   
                 Charge=0.000000000          Polarization=0.000000000  [A^3] (considered a chargeless atom and no polarization)  Interactions: yes
                 Anisotropic factor:    0.000 [-] (Relative), Radius:    1.000 [A], Framework-atom:  no
Pseudo Atom[  12] Name Bh_      Oxidation: +0       Element: Bh   pdb-name: Bh   Scat. Types:  -1  -1 Mass=264.000000000 B-factor:1.000   
                 Charge=0.000000000          Polarization=0.000000000  [A^3] (considered a chargeless atom and no polarization)  Interactions: yes
                 Anisotropic factor:    0.000 [-] (Relative), Radius:    1.000 [A], Framework-atom:  no
Pseudo Atom[  13] Name Bi_      Oxidation: +0       Element: Bi   pdb-name: Bi   Scat. Types:  84  83 Mass=208.980000000 B-factor:1.000   
                 Charge=0.000000000          Polarization=0.000000000  [A^3] (considered a chargeless atom and no polarization)  Interactions: yes
                 Anisotropic factor:    0.000 [-] (Relative), Radius:    1.000 [A], Framework-atom:  no
Pseudo Atom[  14] Name Bk_      Oxidation: +0       Element: Bk   pdb-name: Bk   Scat. Types:  98  97 Mass=247.000000000 B-factor:1.000   
                 Charge=0.000000000          Polarization=0.000000000  [A^3] (considered a chargeless atom and no polarization)  Interactions: yes
                 Anisotropic factor:    0.000 [-] (Relative), Radius:    1.000 [A], Framework-atom:  no
Pseudo Atom[  15] Name Br_      Oxidation: +0       Element: Br   pdb-name: Br   Scat. Types:  36  35 Mass=79.904000000 B-factor:1.000   
                 Charge=0.000000000          Polarization=0.000000000  [A^3] (considered a chargeless atom and no polarization)  Interactions: yes
                 Anisotropic factor:    0.000 [-] (Relative), Radius:    1.000 [A], Framework-atom:  no
Pseudo Atom[  16] Name C_       Oxidation: +0       Element: C    pdb-name: C    Scat. Types:   7   6 Mass=12.011000000 B-factor:1.000   
                 Charge=0.000000000          Polarization=0.000000000  [A^3] (considered a chargeless atom and no polarization)  Interactions: yes
                 Anisotropic factor:    0.000 [-] (Relative), Radius:    1.000 [A], Framework-atom:  no
Pseudo Atom[  17] Name Ca_      Oxidation: +0       Element: Ca   pdb-name: Ca   Scat. Types:  21  20 Mass=40.078000000 B-factor:1.000   
                 Charge=0.000000000          Polarization=0.000000000  [A^3] (considered a chargeless atom and no polarization)  Interactions: yes
                 Anisotropic factor:    0.000 [-] (Relative), Radius:    1.000 [A], Framework-atom:  no
Pseudo Atom[  18] Name Cd_      Oxidation: +0       Element: Cd   pdb-name: Cd   Scat. Types:  49  48 Mass=112.411000000 B-factor:1.000   
                 Charge=0.000000000          Polarization=0.000000000  [A^3] (considered a chargeless atom and no polarization)  Interactions: yes
                 Anisotropic factor:    0.000 [-] (Relative), Radius:    1.000 [A], Framework-atom:  no
Pseudo Atom[  19] Name Ce_      Oxidation: +0       Element: Ce   pdb-name: Ce   Scat. Types:  59  58 Mass=140.116000000 B-factor:1.000   
                 Charge=0.000000000          Polarization=0.000000000  [A^3] (considered a chargeless atom and no polarization)  Interactions: yes
                 Anisotropic factor:    0.000 [-] (Relative), Radius:    1.000 [A], Framework-atom:  no
Pseudo Atom[  20] Name Cf_      Oxidation: +0       Element: Cf   pdb-name: Cf   Scat. Types:  99  98 Mass=251.000000000 B-factor:1.000   
                 Charge=0.000000000          Polarization=0.000000000  [A^3] (considered a chargeless atom and no polarization)  Interactions: yes
                 Anisotropic factor:    0.000 [-] (Relative), Radius:    1.000 [A], Framework-atom:  no
Pseudo Atom[  21] Name Cl_      Oxidation: +0       Element: Cl   pdb-name: Cl   Scat. Types:  18  17 Mass=35.453000000 B-factor:1.000   
                 Charge=0.000000000          Polarization=0.000000000  [A^3] (considered a chargeless atom and no polarization)  Interactions: yes
                 Anisotropic factor:    0.000 [-] (Relative), Radius:    1.000 [A], Framework-atom:  no
Pseudo Atom[  22] Name Cm_      Oxidation: +0       Element: Cm   pdb-name: Cm   Scat. Types:  97  96 Mass=247.000000000 B-factor:1.000   
                 Charge=0.000000000          Polarization=0.000000000  [A^3] (considered a chargeless atom and no polarization)  Interactions: yes
                 Anisotropic factor:    0.000 [-] (Relative), Radius:    1.000 [A], Framework-atom:  no
Pseudo Atom[  23] Name Co_      Oxidation: +0       Element: Co   pdb-name: Co   Scat. Types:  28  27 Mass=58.933000000 B-factor:1.000   
                 Charge=0.000000000          Polarization=0.000000000  [A^3] (considered a chargeless atom and no polarization)  Interactions: yes
                 Anisotropic factor:    0.000 [-] (Relative), Radius:    1.000 [A], Framework-atom:  no
Pseudo Atom[  24] Name Cr_      Oxidation: +0       Element: Cr   pdb-name: Cr   Scat. Types:  25  24 Mass=51.996000000 B-factor:1.000   
                 Charge=0.000000000          Polarization=0.000000000  [A^3] (considered a chargeless atom and no polarization)  Interactions: yes
                 Anisotropic factor:    0.000 [-] (Relative), Radius:    1.000 [A], Framework-atom:  no
Pseudo Atom[  25] Name Cs_      Oxidation: +0       Element: Cs   pdb-name: Cs   Scat. Types:  56  55 Mass=132.905000000 B-factor:1.000   
                 Charge=0.000000000          Polarization=0.000000000  [A^3] (considered a chargeless atom and no polarization)  Interactions: yes
                 Anisotropic factor:    0.000 [-] (Relative), Radius:    1.000 [A], Framework-atom:  no
Pseudo Atom[  26] Name Cu_      Oxidation: +0       Element: Cu   pdb-name: Cu   Scat. Types:  30  29 Mass=63.546000000 B-factor:1.000   
                 Charge=0.000000000          Polarization=0.000000000  [A^3] (considered a chargeless atom and no polarization)  Interactions: yes
                 Anisotropic factor:    0.000 [-] (Relative), Radius:    1.000 [A], Framework-atom:  no
Pseudo Atom[  27] Name Db_      Oxidation: +0       Element: Db   pdb-name: Db   Scat. Types:  -1  -1 Mass=262.000000000 B-factor:1.000   
                 Charge=0.000000000          Polarization=0.000000000  [A^3] (considered a chargeless atom and no polarization)  Interactions:  no
                 Anisotropic factor:    0.000 [-] (Relative), Radius:    1.000 [A], Framework-atom:  no
Pseudo Atom[  28] Name Ds_      Oxidation: +0       Element: Ds   pdb-name: Ds   Scat. Types:  -1  -1 Mass=271.000000000 B-factor:1.000   
                 Charge=0.000000000          Polarization=0.000000000  [A^3] (considered a chargeless atom and no polarization)  Interactions:  no
                 Anisotropic factor:    0.000 [-] (Relative), Radius:    1.000 [A], Framework-atom:  no
Pseudo Atom[  29] Name Dy_      Oxidation: +0       Element: Dy   pdb-name: Dy   Scat. Types:  67  66 Mass=162.500000000 B-factor:1.000   
                 Charge=0.000000000          Polarization=0.000000000  [A^3] (considered a chargeless atom and no polarization)  Interactions: yes
                 Anisotropic factor:    0.000 [-] (Relative), Radius:    1.000 [A], Framework-atom:  no
Pseudo Atom[  30] Name Er_      Oxidation: +0       Element: Er   pdb-name: Er   Scat. Types:  69  68 Mass=167.260000000 B-factor:1.000   
                 Charge=0.000000000          Polarization=0.000000000  [A^3] (considered a chargeless atom and no polarization)  Interactions: yes
                 Anisotropic factor:    0.000 [-] (Relative), Radius:    1.000 [A], Framework-atom:  no
Pseudo Atom[  31] Name Es_      Oxidation: +0       Element: Es   pdb-name: Es   Scat. Types:  -1  -1 Mass=252.000000000 B-factor:1.000   
                 Charge=0.000000000          Polarization=0.000000000  [A^3] (considered a chargeless atom and no polarization)  Interactions: yes
                 Anisotropic factor:    0.000 [-] (Relative), Radius:    1.000 [A], Framework-atom:  no
Pseudo Atom[  32] Name Eu_      Oxidation: +0       Element: Eu   pdb-name: Eu   Scat. Types:  64  63 Mass=151.964000000 B-factor:1.000   
                 Charge=0.000000000          Polarization=0.000000000  [A^3] (considered a chargeless atom and no polarization)  Interactions: yes
                 Anisotropic factor:    0.000 [-] (Relative), Radius:    1.000 [A], Framework-atom:  no
Pseudo Atom[  33] Name F_       Oxidation: +0       Element: F    pdb-name: F    Scat. Types:  10   9 Mass=18.998000000 B-factor:1.000   
                 Charge=0.000000000          Polarization=0.000000000  [A^3] (considered a chargeless atom and no polarization)  Interactions: yes
                 Anisotropic factor:    0.000 [-] (Relative), Radius:    1.000 [A], Framework-atom:  no
Pseudo Atom[  34] Name Fe_      Oxidation: +0       Element: Fe   pdb-name: Fe   Scat. Types:  27  26 Mass=55.845000000 B-factor:1.000   
                 Charge=0.000000000          Polarization=0.000000000  [A^3] (considered a chargeless atom and no polarization)  Interactions: yes
                 Anisotropic factor:    0.000 [-] (Relative), Radius:    1.000 [A], Framework-atom:  no
Pseudo Atom[  35] Name Fm_      Oxidation: +0       Element: Fm   pdb-name: Fm   Scat. Types:  -1  -1 Mass=257.000000000 B-factor:1.000   
                 Charge=0.000000000          Polarization=0.000000000  [A^3] (considered a chargeless atom and no polarization)  Interactions: yes
                 Anisotropic factor:    0.000 [-] (Relative), Radius:    1.000 [A], Framework-atom:  no
Pseudo Atom[  36] Name Fr_      Oxidation: +0       Element: Fr   pdb-name: Fr   Scat. Types:  88  87 Mass=223.000000000 B-factor:1.000   
                 Charge=0.000000000          Polarization=0.000000000  [A^3] (considered a chargeless atom and no polarization)  Interactions: yes
                 Anisotropic factor:    0.000 [-] (Relative), Radius:    1.000 [A], Framework-atom:  no
Pseudo Atom[  37] Name Ga_      Oxidation: +0       Element: Ga   pdb-name: Ga   Scat. Types:  32  31 Mass=69.723000000 B-factor:1.000   
                 Charge=0.000000000          Polarization=0.000000000  [A^3] (considered a chargeless atom and no polarization)  Interactions: yes
                 Anisotropic factor:    0.000 [-] (Relative), Radius:    1.000 [A], Framework-atom:  no
Pseudo Atom[  38] Name Gd_      Oxidation: +0       Element: Gd   pdb-name: Gd   Scat. Types:  65  64 Mass=157.250000000 B-factor:1.000   
                 Charge=0.000000000          Polarization=0.000000000  [A^3] (considered a chargeless atom and no polarization)  Interactions: yes
                 Anisotropic factor:    0.000 [-] (Relative), Radius:    1.000 [A], Framework-atom:  no
Pseudo Atom[  39] Name Ge_      Oxidation: +0       Element: Ge   pdb-name: Ge   Scat. Types:  33  32 Mass=72.610000000 B-factor:1.000   
                 Charge=0.000000000          Polarization=0.000000000  [A^3] (considered a chargeless atom and no polarization)  Interactions: yes
                 Anisotropic factor:    0.000 [-] (Relative), Radius:    1.000 [A], Framework-atom:  no
Pseudo Atom[  40] Name H_       Oxidation: +0       Element: H    pdb-name: H    Scat. Types:   1   1 Mass=1.008000000  B-factor:1.000   
                 Charge=0.000000000          Polarization=0.000000000  [A^3] (considered a chargeless atom and no polarization)  Interactions: yes
                 Anisotropic factor:    0.000 [-] (Relative), Radius:    1.000 [A], Framework-atom:  no
Pseudo Atom[  41] Name He       Oxidation: +0       Element: He   pdb-name: He   Scat. Types:   3   2 Mass=4.003000000  B-factor:1.000   
                 Charge=0.000000000          Polarization=0.000000000  [A^3] (considered a chargeless atom and no polarization)  Interactions: yes
                 Anisotropic factor:    0.000 [-] (Relative), Radius:    1.000 [A], Framework-atom:  no
Pseudo Atom[  42] Name Hf_      Oxidation: +0       Element: Hf   pdb-name: Hf   Scat. Types:  73  72 Mass=178.490000000 B-factor:1.000   
                 Charge=0.000000000          Polarization=0.000000000  [A^3] (considered a chargeless atom and no polarization)  Interactions: yes
                 Anisotropic factor:    0.000 [-] (Relative), Radius:    1.000 [A], Framework-atom:  no
Pseudo Atom[  43] Name Hg_      Oxidation: +0       Element: Hg   pdb-name: Hg   Scat. Types:  81  80 Mass=200.590000000 B-factor:1.000   
                 Charge=0.000000000          Polarization=0.000000000  [A^3] (considered a chargeless atom and no polarization)  Interactions: yes
                 Anisotropic factor:    0.000 [-] (Relative), Radius:    1.000 [A], Framework-atom:  no
Pseudo Atom[  44] Name Ho_      Oxidation: +0       Element: Ho   pdb-name: Ho   Scat. Types:  68  67 Mass=164.930000000 B-factor:1.000   
                 Charge=0.000000000          Polarization=0.000000000  [A^3] (considered a chargeless atom and no polarization)  Interactions: yes
                 Anisotropic factor:    0.000 [-] (Relative), Radius:    1.000 [A], Framework-atom:  no
Pseudo Atom[  45] Name Hs_      Oxidation: +0       Element: Hs   pdb-name: Hs   Scat. Types:  -1  -1 Mass=269.000000000 B-factor:1.000   
                 Charge=0.000000000          Polarization=0.000000000  [A^3] (considered a chargeless atom and no polarization)  Interactions: yes
                 Anisotropic factor:    0.000 [-] (Relative), Radius:    1.000 [A], Framework-atom:  no
Pseudo Atom[  46] Name I_       Oxidation: +0       Element: I    pdb-name: I    Scat. Types:  54  49 Mass=126.904000000 B-factor:1.000   
                 Charge=0.000000000          Polarization=0.000000000  [A^3] (considered a chargeless atom and no polarization)  Interactions: yes
                 Anisotropic factor:    0.000 [-] (Relative), Radius:    1.000 [A], Framework-atom:  no
Pseudo Atom[  47] Name In_      Oxidation: +0       Element: In   pdb-name: In   Scat. Types:  50  49 Mass=114.818000000 B-factor:1.000   
                 Charge=0.000000000          Polarization=0.000000000  [A^3] (considered a chargeless atom and no polarization)  Interactions: yes
                 Anisotropic factor:    0.000 [-] (Relative), Radius:    1.000 [A], Framework-atom:  no
Pseudo Atom[  48] Name Ir_      Oxidation: +0       Element: Ir   pdb-name: Ir   Scat. Types:  78  77 Mass=192.217000000 B-factor:1.000   
                 Charge=0.000000000          Polarization=0.000000000  [A^3] (considered a chargeless atom and no polarization)  Interactions: yes
                 Anisotropic factor:    0.000 [-] (Relative), Radius:    1.000 [A], Framework-atom:  no
Pseudo Atom[  49] Name K_       Oxidation: +0       Element: K    pdb-name: K    Scat. Types:  20  19 Mass=39.098000000 B-factor:1.000   
                 Charge=0.000000000          Polarization=0.000000000  [A^3] (considered a chargeless atom and no polarization)  Interactions: yes
                 Anisotropic factor:    0.000 [-] (Relative), Radius:    1.000 [A], Framework-atom:  no
Pseudo Atom[  50] Name Kr_      Oxidation: +0       Element: Kr   pdb-name: Kr   Scat. Types:  37  36 Mass=83.800000000 B-factor:1.000   
                 Charge=0.000000000          Polarization=0.000000000  [A^3] (considered a chargeless atom and no polarization)  Interactions: yes
                 Anisotropic factor:    0.000 [-] (Relative), Radius:    1.000 [A], Framework-atom:  no
Pseudo Atom[  51] Name La_      Oxidation: +0       Element: La   pdb-name: La   Scat. Types:  58  57 Mass=138.906000000 B-factor:1.000   
                 Charge=0.000000000          Polarization=0.000000000  [A^3] (considered a chargeless atom and no polarization)  Interactions: yes
                 Anisotropic factor:    0.000 [-] (Relative), Radius:    1.000 [A], Framework-atom:  no
Pseudo Atom[  52] Name Li_      Oxidation: +0       Element: Li   pdb-name: Li   Scat. Types:   4   3 Mass=6.941000000  B-factor:1.000   
                 Charge=0.000000000          Polarization=0.000000000  [A^3] (considered a chargeless atom and no polarization)  Interactions: yes
                 Anisotropic factor:    0.000 [-] (Relative), Radius:    1.000 [A], Framework-atom:  no
Pseudo Atom[  53] Name Lw_      Oxidation: +0       Element: Lr   pdb-name: Lr   Scat. Types:  -1  -1 Mass=262.000000000 B-factor:1.000   
                 Charge=0.000000000          Polarization=0.000000000  [A^3] (considered a chargeless atom and no polarization)  Interactions:  no
                 Anisotropic factor:    0.000 [-] (Relative), Radius:    1.000 [A], Framework-atom:  no
Pseudo Atom[  54] Name Lu_      Oxidation: +0       Element: Lu   pdb-name: Lu   Scat. Types:  72  71 Mass=174.967000000 B-factor:1.000   
                 Charge=0.000000000          Polarization=0.000000000  [A^3] (considered a chargeless atom and no polarization)  Interactions: yes
                 Anisotropic factor:    0.000 [-] (Relative), Radius:    1.000 [A], Framework-atom:  no
Pseudo Atom[  55] Name Md_      Oxidation: +0       Element: Md   pdb-name: Md   Scat. Types:  -1  -1 Mass=258.000000000 B-factor:1.000   
                 Charge=0.000000000          Polarization=0.000000000  [A^3] (considered a chargeless atom and no polarization)  Interactions: yes
                 Anisotropic factor:    0.000 [-] (Relative), Radius:    1.000 [A], Framework-atom:  no
Pseudo Atom[  56] Name Mg_      Oxidation: +0       Element: Mg   pdb-name: Mg   Scat. Types:  13  12 Mass=24.305000000 B-factor:1.000   
                 Charge=0.000000000          Polarization=0.000000000  [A^3] (considered a chargeless atom and no polarization)  Interactions: yes
                 Anisotropic factor:    0.000 [-] (Relative), Radius:    1.000 [A], Framework-atom:  no
Pseudo Atom[  57] Name Mn_      Oxidation: +0       Element: Mn   pdb-name: Mn   Scat. Types:  26  25 Mass=54.938000000 B-factor:1.000   
                 Charge=0.000000000          Polarization=0.000000000  [A^3] (considered a chargeless atom and no polarization)  Interactions: yes
                 Anisotropic factor:    0.000 [-] (Relative), Radius:    1.000 [A], Framework-atom:  no
Pseudo Atom[  58] Name Mo_      Oxidation: +0       Element: Mo   pdb-name: Mo   Scat. Types:  43  42 Mass=95.940000000 B-factor:1.000   
                 Charge=0.000000000          Polarization=0.000000000  [A^3] (considered a chargeless atom and no polarization)  Interactions: yes
                 Anisotropic factor:    0.000 [-] (Relative), Radius:    1.000 [A], Framework-atom:  no
Pseudo Atom[  59] Name Mt_      Oxidation: +0       Element: Mt   pdb-name: Mt   Scat. Types:  -1  -1 Mass=268.000000000 B-factor:1.000   
                 Charge=0.000000000          Polarization=0.000000000  [A^3] (considered a chargeless atom and no polarization)  Interactions:  no
                 Anisotropic factor:    0.000 [-] (Relative), Radius:    1.000 [A], Framework-atom:  no
Pseudo Atom[  60] Name N_       Oxidation: +0       Element: N    pdb-name: N    Scat. Types:   8   7 Mass=14.007000000 B-factor:1.000   
                 Charge=0.000000000          Polarization=0.000000000  [A^3] (considered a chargeless atom and no polarization)  Interactions: yes
                 Anisotropic factor:    0.000 [-] (Relative), Radius:    1.000 [A], Framework-atom:  no
Pseudo Atom[  61] Name Na_      Oxidation: +0       Element: Na   pdb-name: Na   Scat. Types:  12  11 Mass=22.991000000 B-factor:1.000   
                 Charge=0.000000000          Polarization=0.000000000  [A^3] (considered a chargeless atom and no polarization)  Interactions: yes
                 Anisotropic factor:    0.000 [-] (Relative), Radius:    1.000 [A], Framework-atom:  no
Pseudo Atom[  62] Name Nb_      Oxidation: +0       Element: Nb   pdb-name: Nb   Scat. Types:  42  41 Mass=92.906000000 B-factor:1.000   
                 Charge=0.000000000          Polarization=0.000000000  [A^3] (considered a chargeless atom and no polarization)  Interactions: yes
                 Anisotropic factor:    0.000 [-] (Relative), Radius:    1.000 [A], Framework-atom:  no
Pseudo Atom[  63] Name Nd_      Oxidation: +0       Element: Nd   pdb-name: Nd   Scat. Types:  61  60 Mass=144.240000000 B-factor:1.000   
                 Charge=0.000000000          Polarization=0.000000000  [A^3] (considered a chargeless atom and no polarization)  Interactions: yes
                 Anisotropic factor:    0.000 [-] (Relative), Radius:    1.000 [A], Framework-atom:  no
Pseudo Atom[  64] Name Ne_      Oxidation: +0       Element: Ne   pdb-name: Ne   Scat. Types:  11  10 Mass=20.180000000 B-factor:1.000   
                 Charge=0.000000000          Polarization=0.000000000  [A^3] (considered a chargeless atom and no polarization)  Interactions: yes
                 Anisotropic factor:    0.000 [-] (Relative), Radius:    1.000 [A], Framework-atom:  no
Pseudo Atom[  65] Name Ni_      Oxidation: +0       Element: Ni   pdb-name: Ni   Scat. Types:  29  28 Mass=58.693000000 B-factor:1.000   
                 Charge=0.000000000          Polarization=0.000000000  [A^3] (considered a chargeless atom and no polarization)  Interactions: yes
                 Anisotropic factor:    0.000 [-] (Relative), Radius:    1.000 [A], Framework-atom:  no
Pseudo Atom[  66] Name No_      Oxidation: +0       Element: No   pdb-name: No   Scat. Types:  -1  -1 Mass=259.000000000 B-factor:1.000   
                 Charge=0.000000000          Polarization=0.000000000  [A^3] (considered a chargeless atom and no polarization)  Interactions: yes
                 Anisotropic factor:    0.000 [-] (Relative), Radius:    1.000 [A], Framework-atom:  no
Pseudo Atom[  67] Name Np_      Oxidation: +0       Element: Np   pdb-name: Np   Scat. Types:  94  93 Mass=237.000000000 B-factor:1.000   
                 Charge=0.000000000          Polarization=0.000000000  [A^3] (considered a chargeless atom and no polarization)  Interactions: yes
                 Anisotropic factor:    0.000 [-] (Relative), Radius:    1.000 [A], Framework-atom:  no
Pseudo Atom[  68] Name O_       Oxidation: +0       Element: O    pdb-name: O    Scat. Types:   9   8 Mass=15.999000000 B-factor:1.000   
                 Charge=0.000000000          Polarization=0.000000000  [A^3] (considered a chargeless atom and no polarization)  Interactions: yes
                 Anisotropic factor:    0.000 [-] (Relative), Radius:    1.000 [A], Framework-atom:  no
Pseudo Atom[  69] Name Os_      Oxidation: +0       Element: Os   pdb-name: Os   Scat. Types:  77  76 Mass=190.230000000 B-factor:1.000   
                 Charge=0.000000000          Polarization=0.000000000  [A^3] (considered a chargeless atom and no polarization)  Interactions: yes
                 Anisotropic factor:    0.000 [-] (Relative), Radius:    1.000 [A], Framework-atom:  no
Pseudo Atom[  70] Name P_       Oxidation: +0       Element: P    pdb-name: P    Scat. Types:  16  15 Mass=30.974000000 B-factor:1.000   
                 Charge=0.000000000          Polarization=0.000000000  [A^3] (considered a chargeless atom and no polarization)  Interactions: yes
                 Anisotropic factor:    0.000 [-] (Relative), Radius:    1.000 [A], Framework-atom:  no
Pseudo Atom[  71] Name Pa_      Oxidation: +0       Element: Pa   pdb-name: Pa   Scat. Types:  92  91 Mass=231.036000000 B-factor:1.000   
                 Charge=0.000000000          Polarization=0.000000000  [A^3] (considered a chargeless atom and no polarization)  Interactions: yes
                 Anisotropic factor:    0.000 [-] (Relative), Radius:    1.000 [A], Framework-atom:  no
Pseudo Atom[  72] Name Pb_      Oxidation: +0       Element: Pb   pdb-name: Pb   Scat. Types:  83  82 Mass=207.200000000 B-factor:1.000   
                 Charge=0.000000000          Polarization=0.000000000  [A^3] (considered a chargeless atom and no polarization)  Interactions: yes
                 Anisotropic factor:    0.000 [-] (Relative), Radius:    1.000 [A], Framework-atom:  no
Pseudo Atom[  73] Name Pd_      Oxidation: +0       Element: Pd   pdb-name: Pd   Scat. Types:  47  46 Mass=106.420000000 B-factor:1.000   
                 Charge=0.000000000          Polarization=0.000000000  [A^3] (considered a chargeless atom and no polarization)  Interactions: yes
                 Anisotropic factor:    0.000 [-] (Relative), Radius:    1.000 [A], Framework-atom:  no
Pseudo Atom[  74] Name Pm_      Oxidation: +0       Element: Pm   pdb-name: Pm   Scat. Types:  62  61 Mass=145.000000000 B-factor:1.000   
                 Charge=0.000000000          Polarization=0.000000000  [A^3] (considered a chargeless atom and no polarization)  Interactions: yes
                 Anisotropic factor:    0.000 [-] (Relative), Radius:    1.000 [A], Framework-atom:  no
Pseudo Atom[  75] Name Po_      Oxidation: +0       Element: Po   pdb-name: Po   Scat. Types:  85  84 Mass=210.000000000 B-factor:1.000   
                 Charge=0.000000000          Polarization=0.000000000  [A^3] (considered a chargeless atom and no polarization)  Interactions: yes
                 Anisotropic factor:    0.000 [-] (Relative), Radius:    1.000 [A], Framework-atom:  no
Pseudo Atom[  76] Name Pr_      Oxidation: +0       Element: Pr   pdb-name: Pr   Scat. Types:  60  59 Mass=140.908000000 B-factor:1.000   
                 Charge=0.000000000          Polarization=0.000000000  [A^3] (considered a chargeless atom and no polarization)  Interactions: yes
                 Anisotropic factor:    0.000 [-] (Relative), Radius:    1.000 [A], Framework-atom:  no
Pseudo Atom[  77] Name Pt_      Oxidation: +0       Element: Pt   pdb-name: Pt   Scat. Types:  79  78 Mass=195.078000000 B-factor:1.000   
                 Charge=0.000000000          Polarization=0.000000000  [A^3] (considered a chargeless atom and no polarization)  Interactions: yes
                 Anisotropic factor:    0.000 [-] (Relative), Radius:    1.000 [A], Framework-atom:  no
Pseudo Atom[  78] Name Pu_      Oxidation: +0       Element: Pu   pdb-name: Pu   Scat. Types:  95  94 Mass=244.000000000 B-factor:1.000   
                 Charge=0.000000000          Polarization=0.000000000  [A^3] (considered a chargeless atom and no polarization)  Interactions: yes
                 Anisotropic factor:    0.000 [-] (Relative), Radius:    1.000 [A], Framework-atom:  no
Pseudo Atom[  79] Name Ra_      Oxidation: +0       Element: Ra   pdb-name: Ra   Scat. Types:  89  88 Mass=226.000000000 B-factor:1.000   
                 Charge=0.000000000          Polarization=0.000000000  [A^3] (considered a chargeless atom and no polarization)  Interactions: yes
                 Anisotropic factor:    0.000 [-] (Relative), Radius:    1.000 [A], Framework-atom:  no
Pseudo Atom[  80] Name Rb_      Oxidation: +0       Element: Rb   pdb-name: Rb   Scat. Types:  38  37 Mass=85.468000000 B-factor:1.000   
                 Charge=0.000000000          Polarization=0.000000000  [A^3] (considered a chargeless atom and no polarization)  Interactions: yes
                 Anisotropic factor:    0.000 [-] (Relative), Radius:    1.000 [A], Framework-atom:  no
Pseudo Atom[  81] Name Re_      Oxidation: +0       Element: Re   pdb-name: Re   Scat. Types:  76  75 Mass=186.207000000 B-factor:1.000   
                 Charge=0.000000000          Polarization=0.000000000  [A^3] (considered a chargeless atom and no polarization)  Interactions: yes
                 Anisotropic factor:    0.000 [-] (Relative), Radius:    1.000 [A], Framework-atom:  no
Pseudo Atom[  82] Name Rf_      Oxidation: +0       Element: Rf   pdb-name: Rf   Scat. Types:  -1  -1 Mass=261.000000000 B-factor:1.000   
                 Charge=0.000000000          Polarization=0.000000000  [A^3] (considered a chargeless atom and no polarization)  Interactions:  no
                 Anisotropic factor:    0.000 [-] (Relative), Radius:    1.000 [A], Framework-atom:  no
Pseudo Atom[  83] Name Rh_      Oxidation: +0       Element: Rh   pdb-name: Rh   Scat. Types:  46  45 Mass=102.906000000 B-factor:1.000   
                 Charge=0.000000000          Polarization=0.000000000  [A^3] (considered a chargeless atom and no polarization)  Interactions: yes
                 Anisotropic factor:    0.000 [-] (Relative), Radius:    1.000 [A], Framework-atom:  no
Pseudo Atom[  84] Name Rn_      Oxidation: +0       Element: Rn   pdb-name: Rn   Scat. Types:  87  86 Mass=222.000000000 B-factor:1.000   
                 Charge=0.000000000          Polarization=0.000000000  [A^3] (considered a chargeless atom and no polarization)  Interactions: yes
                 Anisotropic factor:    0.000 [-] (Relative), Radius:    1.000 [A], Framework-atom:  no
Pseudo Atom[  85] Name Ru_      Oxidation: +0       Element: Ru   pdb-name: Ru   Scat. Types:  45  44 Mass=101.070000000 B-factor:1.000   
                 Charge=0.000000000          Polarization=0.000000000  [A^3] (considered a chargeless atom and no polarization)  Interactions: yes
                 Anisotropic factor:    0.000 [-] (Relative), Radius:    1.000 [A], Framework-atom:  no
Pseudo Atom[  86] Name S_       Oxidation: +0       Element: S    pdb-name: S    Scat. Types:  17  14 Mass=32.066000000 B-factor:1.000   
                 Charge=0.000000000          Polarization=0.000000000  [A^3] (considered a chargeless atom and no polarization)  Interactions: yes
                 Anisotropic factor:    0.000 [-] (Relative), Radius:    1.000 [A], Framework-atom:  no
Pseudo Atom[  87] Name Sb_      Oxidation: +0       Element: Sb   pdb-name: Sb   Scat. Types:  52  51 Mass=121.760000000 B-factor:1.000   
                 Charge=0.000000000          Polarization=0.000000000  [A^3] (considered a chargeless atom and no polarization)  Interactions: yes
                 Anisotropic factor:    0.000 [-] (Relative), Radius:    1.000 [A], Framework-atom:  no
Pseudo Atom[  88] Name Sc_      Oxidation: +0       Element: Sc   pdb-name: Sc   Scat. Types:  22  21 Mass=44.956000000 B-factor:1.000   
                 Charge=0.000000000          Polarization=0.000000000  [A^3] (considered a chargeless atom and no polarization)  Interactions: yes
                 Anisotropic factor:    0.000 [-] (Relative), Radius:    1.000 [A], Framework-atom:  no
Pseudo Atom[  89] Name Se_      Oxidation: +0       Element: Se   pdb-name: Se   Scat. Types:  35  34 Mass=78.960000000 B-factor:1.000   
                 Charge=0.000000000          Polarization=0.000000000  [A^3] (considered a chargeless atom and no polarization)  Interactions: yes
                 Anisotropic factor:    0.000 [-] (Relative), Radius:    1.000 [A], Framework-atom:  no
Pseudo Atom[  90] Name Sg_      Oxidation: +0       Element: Sg   pdb-name: Sg   Scat. Types:  -1  -1 Mass=266.000000000 B-factor:1.000   
                 Charge=0.000000000          Polarization=0.000000000  [A^3] (considered a chargeless atom and no polarization)  Interactions: yes
                 Anisotropic factor:    0.000 [-] (Relative), Radius:    1.000 [A], Framework-atom:  no
Pseudo Atom[  91] Name Si_      Oxidation: +0       Element: Si   pdb-name: Si   Scat. Types:  15  14 Mass=28.086000000 B-factor:1.000   
                 Charge=0.000000000          Polarization=0.000000000  [A^3] (considered a chargeless atom and no polarization)  Interactions: yes
                 Anisotropic factor:    0.000 [-] (Relative), Radius:    1.000 [A], Framework-atom:  no
Pseudo Atom[  92] Name Sm_      Oxidation: +0       Element: Sm   pdb-name: Sm   Scat. Types:  63  62 Mass=150.360000000 B-factor:1.000   
                 Charge=0.000000000          Polarization=0.000000000  [A^3] (considered a chargeless atom and no polarization)  Interactions: yes
                 Anisotropic factor:    0.000 [-] (Relative), Radius:    1.000 [A], Framework-atom:  no
Pseudo Atom[  93] Name Sn_      Oxidation: +0       Element: Sn   pdb-name: Sn   Scat. Types:  51  50 Mass=118.710000000 B-factor:1.000   
                 Charge=0.000000000          Polarization=0.000000000  [A^3] (considered a chargeless atom and no polarization)  Interactions: yes
                 Anisotropic factor:    0.000 [-] (Relative), Radius:    1.000 [A], Framework-atom:  no
Pseudo Atom[  94] Name Sr_      Oxidation: +0       Element: Sr   pdb-name: Sr   Scat. Types:  39  38 Mass=87.620000000 B-factor:1.000   
                 Charge=0.000000000          Polarization=0.000000000  [A^3] (considered a chargeless atom and no polarization)  Interactions: yes
                 Anisotropic factor:    0.000 [-] (Relative), Radius:    1.000 [A], Framework-atom:  no
Pseudo Atom[  95] Name Ta_      Oxidation: +0       Element: Ta   pdb-name: Ta   Scat. Types:  74  73 Mass=180.948000000 B-factor:1.000   
                 Charge=0.000000000          Polarization=0.000000000  [A^3] (considered a chargeless atom and no polarization)  Interactions: yes
                 Anisotropic factor:    0.000 [-] (Relative), Radius:    1.000 [A], Framework-atom:  no
Pseudo Atom[  96] Name Tb_      Oxidation: +0       Element: Tb   pdb-name: Tb   Scat. Types:  66  65 Mass=158.925000000 B-factor:1.000   
                 Charge=0.000000000          Polarization=0.000000000  [A^3] (considered a chargeless atom and no polarization)  Interactions: yes
                 Anisotropic factor:    0.000 [-] (Relative), Radius:    1.000 [A], Framework-atom:  no
Pseudo Atom[  97] Name Tc_      Oxidation: +0       Element: Tc   pdb-name: Tc   Scat. Types:  44  43 Mass=98.000000000 B-factor:1.000   
                 Charge=0.000000000          Polarization=0.000000000  [A^3] (considered a chargeless atom and no polarization)  Interactions: yes
                 Anisotropic factor:    0.000 [-] (Relative), Radius:    1.000 [A], Framework-atom:  no
Pseudo Atom[  98] Name Te_      Oxidation: +0       Element: Te   pdb-name: Te   Scat. Types:  53  52 Mass=127.600000000 B-factor:1.000   
                 Charge=0.000000000          Polarization=0.000000000  [A^3] (considered a chargeless atom and no polarization)  Interactions: yes
                 Anisotropic factor:    0.000 [-] (Relative), Radius:    1.000 [A], Framework-atom:  no
Pseudo Atom[  99] Name Th_      Oxidation: +0       Element: Th   pdb-name: Th   Scat. Types:  91  90 Mass=232.038000000 B-factor:1.000   
                 Charge=0.000000000          Polarization=0.000000000  [A^3] (considered a chargeless atom and no polarization)  Interactions: yes
                 Anisotropic factor:    0.000 [-] (Relative), Radius:    1.000 [A], Framework-atom:  no
Pseudo Atom[ 100] Name Ti_      Oxidation: +0       Element: Ti   pdb-name: Ti   Scat. Types:  23  22 Mass=47.867000000 B-factor:1.000   
                 Charge=0.000000000          Polarization=0.000000000  [A^3] (considered a chargeless atom and no polarization)  Interactions: yes
                 Anisotropic factor:    0.000 [-] (Relative), Radius:    1.000 [A], Framework-atom:  no
Pseudo Atom[ 101] Name Tl_      Oxidation: +0       Element: Tl   pdb-name: Tl   Scat. Types:  82  81 Mass=204.383000000 B-factor:1.000   
                 Charge=0.000000000          Polarization=0.000000000  [A^3] (considered a chargeless atom and no polarization)  Interactions: yes
                 Anisotropic factor:    0.000 [-] (Relative), Radius:    1.000 [A], Framework-atom:  no
Pseudo Atom[ 102] Name Tm_      Oxidation: +0       Element: Tm   pdb-name: Tm   Scat. Types:  70  69 Mass=168.934000000 B-factor:1.000   
                 Charge=0.000000000          Polarization=0.000000000  [A^3] (considered a chargeless atom and no polarization)  Interactions: yes
                 Anisotropic factor:    0.000 [-] (Relative), Radius:    1.000 [A], Framework-atom:  no
Pseudo Atom[ 103] Name U_       Oxidation: +0       Element: U    pdb-name: U    Scat. Types:  93  92 Mass=238.029000000 B-factor:1.000   
                 Charge=0.000000000          Polarization=0.000000000  [A^3] (considered a chargeless atom and no polarization)  Interactions: yes
                 Anisotropic factor:    0.000 [-] (Relative), Radius:    1.000 [A], Framework-atom:  no
Pseudo Atom[ 104] Name V_       Oxidation: +0       Element: V    pdb-name: V    Scat. Types:  24  23 Mass=50.942000000 B-factor:1.000   
                 Charge=0.000000000          Polarization=0.000000000  [A^3] (considered a chargeless atom and no polarization)  Interactions: yes
                 Anisotropic factor:    0.000 [-] (Relative), Radius:    1.000 [A], Framework-atom:  no
Pseudo Atom[ 105] Name W_       Oxidation: +0       Element: W    pdb-name: W    Scat. Types:  75  74 Mass=183.840000000 B-factor:1.000   
                 Charge=0.000000000          Polarization=0.000000000  [A^3] (considered a chargeless atom and no polarization)  Interactions: yes
                 Anisotropic factor:    0.000 [-] (Relative), Radius:    1.000 [A], Framework-atom:  no
Pseudo Atom[ 106] Name Xe_      Oxidation: +0       Element: Xe   pdb-name: Xe   Scat. Types:  55  54 Mass=131.290000000 B-factor:1.000   
                 Charge=0.000000000          Polarization=0.000000000  [A^3] (considered a chargeless atom and no polarization)  Interactions: yes
                 Anisotropic factor:    0.000 [-] (Relative), Radius:    1.000 [A], Framework-atom:  no
Pseudo Atom[ 107] Name Y_       Oxidation: +0       Element: Y    pdb-name: Y    Scat. Types:  40  39 Mass=88.906000000 B-factor:1.000   
                 Charge=0.000000000          Polarization=0.000000000  [A^3] (considered a chargeless atom and no polarization)  Interactions: yes
                 Anisotropic factor:    0.000 [-] (Relative), Radius:    1.000 [A], Framework-atom:  no
Pseudo Atom[ 108] Name Yb_      Oxidation: +0       Element: Yb   pdb-name: Yb   Scat. Types:  71  70 Mass=173.040000000 B-factor:1.000   
                 Charge=0.000000000          Polarization=0.000000000  [A^3] (considered a chargeless atom and no polarization)  Interactions: yes
                 Anisotropic factor:    0.000 [-] (Relative), Radius:    1.000 [A], Framework-atom:  no
Pseudo Atom[ 109] Name Zn_      Oxidation: +0       Element: Zn   pdb-name: Zn   Scat. Types:  31  30 Mass=65.390000000 B-factor:1.000   
                 Charge=0.000000000          Polarization=0.000000000  [A^3] (considered a chargeless atom and no polarization)  Interactions: yes
                 Anisotropic factor:    0.000 [-] (Relative), Radius:    1.000 [A], Framework-atom:  no
Pseudo Atom[ 110] Name Zr_      Oxidation: +0       Element: Zr   pdb-name: Zr   Scat. Types:  41  40 Mass=91.224000000 B-factor:1.000   
                 Charge=0.000000000          Polarization=0.000000000  [A^3] (considered a chargeless atom and no polarization)  Interactions: yes
                 Anisotropic factor:    0.000 [-] (Relative), Radius:    1.000 [A], Framework-atom:  no
Pseudo Atom[ 111] Name CH4_sp3  Oxidation: +0       Element: C    pdb-name: C    Scat. Types:   7   6 Mass=16.042460000 B-factor:1.000   
                 Charge=0.000000000          Polarization=0.000000000  [A^3] (considered a chargeless atom and no polarization)  Interactions: yes
                 Anisotropic factor:    0.000 [-] (Relative), Radius:    1.000 [A], Framework-atom:  no
Pseudo Atom[ 112] Name CH3_sp3  Oxidation: +0       Element: C    pdb-name: C    Scat. Types:   7   6 Mass=15.034520000 B-factor:1.000   
                 Charge=0.000000000          Polarization=0.000000000  [A^3] (considered a chargeless atom and no polarization)  Interactions: yes
                 Anisotropic factor:    0.000 [-] (Relative), Radius:    1.000 [A], Framework-atom:  no
Pseudo Atom[ 113] Name CH2_sp3  Oxidation: +0       Element: C    pdb-name: C    Scat. Types:   7   6 Mass=14.026580000 B-factor:1.000   
                 Charge=0.000000000          Polarization=0.000000000  [A^3] (considered a chargeless atom and no polarization)  Interactions: yes
                 Anisotropic factor:    0.000 [-] (Relative), Radius:    1.000 [A], Framework-atom:  no
Pseudo Atom[ 114] Name CH_sp3   Oxidation: +0       Element: C    pdb-name: C    Scat. Types:   7   6 Mass=13.018640000 B-factor:1.000   
                 Charge=0.000000000          Polarization=0.000000000  [A^3] (considered a chargeless atom and no polarization)  Interactions: yes
                 Anisotropic factor:    0.000 [-] (Relative), Radius:    1.000 [A], Framework-atom:  no
Pseudo Atom[ 115] Name C_sp3    Oxidation: +0       Element: C    pdb-name: C    Scat. Types:   7   6 Mass=12.000000000 B-factor:1.000   
                 Charge=0.000000000          Polarization=0.000000000  [A^3] (considered a chargeless atom and no polarization)  Interactions: yes
                 Anisotropic factor:    0.000 [-] (Relative), Radius:    1.000 [A], Framework-atom:  no
Pseudo Atom[ 116] Name H_h2     Oxidation: +0       Element: H    pdb-name: H    Scat. Types:   1   1 Mass=1.007940000  B-factor:1.000   
                 Charge=0.468000000          Polarization=0.000000000  [A^3] (considered a charged atom and no polarization)  Interactions: yes
                 Anisotropic factor:    0.000 [-] (Relative), Radius:    1.000 [A], Framework-atom:  no
Pseudo Atom[ 117] Name H_com    Oxidation: +0       Element: H    pdb-name: H    Scat. Types:   1   1 Mass=0.000000000  B-factor:1.000   
                 Charge=-0.936000000         Polarization=0.000000000  [A^3] (considered a charged atom and no polarization)  Interactions: yes
                 Anisotropic factor:    0.000 [-] (Relative), Radius:    1.000 [A], Framework-atom:  no
Pseudo Atom[ 118] Name C_co2    Oxidation: +0       Element: C    pdb-name: C    Scat. Types:   7   6 Mass=12.000000000 B-factor:1.000   
                 Charge=0.700000000          Polarization=0.000000000  [A^3] (considered a charged atom and no polarization)  Interactions: yes
                 Anisotropic factor:    0.000 [-] (Relative), Radius:    1.000 [A], Framework-atom:  no
Pseudo Atom[ 119] Name O_co2    Oxidation: +0       Element: O    pdb-name: O    Scat. Types:   9   8 Mass=15.999400000 B-factor:1.000   
                 Charge=-0.350000000         Polarization=0.000000000  [A^3] (considered a charged atom and no polarization)  Interactions: yes
                 Anisotropic factor:    0.000 [-] (Relative), Radius:    1.000 [A], Framework-atom:  no
Pseudo Atom[ 120] Name N_n2     Oxidation: +0       Element: N    pdb-name: N    Scat. Types:   8   7 Mass=14.006700000 B-factor:1.000   
                 Charge=-0.404800000         Polarization=0.000000000  [A^3] (considered a charged atom and no polarization)  Interactions: yes
                 Anisotropic factor:    0.000 [-] (Relative), Radius:    1.000 [A], Framework-atom:  no
Pseudo Atom[ 121] Name N_com    Oxidation: +0       Element: -    pdb-name: N    Scat. Types:   0   7 Mass=0.000000000  B-factor:1.000   
                 Charge=0.809600000          Polarization=0.000000000  [A^3] (considered a charged atom and no polarization)  Interactions: yes
                 Anisotropic factor:    0.000 [-] (Relative), Radius:    1.000 [A], Framework-atom:  no
Pseudo Atom[ 122] Name Ow       Oxidation: +0       Element: O    pdb-name: O    Scat. Types:   9   8 Mass=15.999400000 B-factor:1.000   
                 Charge=0.000000000          Polarization=0.000000000  [A^3] (considered a chargeless atom and no polarization)  Interactions: yes
                 Anisotropic factor:    0.000 [-] (Relative), Radius:    0.500 [A], Framework-atom:  no
Pseudo Atom[ 123] Name Hw       Oxidation: +0       Element: H    pdb-name: H    Scat. Types:   1   1 Mass=1.008000000  B-factor:1.000   
                 Charge=0.520000000          Polarization=0.000000000  [A^3] (considered a charged atom and no polarization)  Interactions: yes
                 Anisotropic factor:    0.000 [-] (Relative), Radius:    0.320 [A], Framework-atom:  no
Pseudo Atom[ 124] Name M        Oxidation: +0       Element: -    pdb-name: M    Scat. Types:   0  12 Mass=0.000000000  B-factor:1.000   
                 Charge=-1.040000000         Polarization=0.000000000  [A^3] (considered a charged atom and no polarization)  Interactions:  no
                 Anisotropic factor:    0.000 [-] (Relative), Radius:    1.000 [A], Framework-atom:  no
Pseudo Atom[ 125] Name C        Oxidation:          Element: C    pdb-name: C    Scat. Types:   7   6 Mass=12.010735897 B-factor:0.000   
                 Charge=0.000000000  (-na-)  Polarization=1.760000000  [A^3] (considered a chargeless atom and no polarization)  Interactions: yes
                 Anisotropic factor:    0.000 [-] (Absolute), Radius:    0.750 [A], Framework-atom: yes (charge definition not found)
Pseudo Atom[ 126] Name H        Oxidation:          Element: H    pdb-name: H    Scat. Types:   1   1 Mass=1.007940754  B-factor:0.000   
                 Charge=0.000000000  (-na-)  Polarization=0.666793000  [A^3] (considered a chargeless atom and no polarization)  Interactions: yes
                 Anisotropic factor:    0.000 [-] (Absolute), Radius:    0.320 [A], Framework-atom: yes (charge definition not found)
Pseudo Atom[ 127] Name N        Oxidation:          Element: N    pdb-name: N    Scat. Types:   8   7 Mass=14.006703212 B-factor:0.000   
                 Charge=0.000000000  (-na-)  Polarization=1.100000000  [A^3] (considered a chargeless atom and no polarization)  Interactions: yes
                 Anisotropic factor:    0.000 [-] (Absolute), Radius:    0.710 [A], Framework-atom: yes (charge definition not found)
Pseudo Atom[ 128] Name Zn       Oxidation:          Element: Zn   pdb-name: Zn   Scat. Types:  31  30 Mass=65.408728088 B-factor:0.000   
                 Charge=0.000000000  (-na-)  Polarization=5.750000000  [A^3] (considered a chargeless atom and no polarization)  Interactions: yes
                 Anisotropic factor:    0.000 [-] (Absolute), Radius:    1.200 [A], Framework-atom: yes (charge definition not found)


Forcefield: UFF
===========================================================================
Minimal distance: 1
CutOff VDW : 12.800000 (163.840000)
CutOff VDW switching on: 11.520000 (132.710400)
CutOff charge-charge : 12.000000 (144.000000)
CutOff charge-charge switching on: 7.800000 (60.840000)
CutOff charge-bonddipole : 12.000000 (144.000000)
CutOff charge-bondipole switching on: 8.400000 (70.560000)
CutOff bonddipole-bonddipole : 12.000000 (144.000000)
CutOff bonddipole-bondipole switching on: 9.000000 (81.000000)
Polarization is neglected
All potentials are unshifted !!!!!!

General mixing rule: Lorentz-Berthelot mixing rules are used FIRST for cross terms
0 cross terms are overwritten using the individual mixing rules from the file 'force_field_mixing_rules.def'
and then 0 terms are overwritten using the specific interactions from the file 'force_field.def'

The force field and all the interactions:
    Ac_ -     Ac_ [LENNARD_JONES] p_0/k_B:  16.60000 [K], p_1: 3.10000 [A], shift/k_B:   0.00000000 [K], tailcorrection: no
    Ac_ -     Ag_ [LENNARD_JONES] p_0/k_B:  17.33857 [K], p_1: 2.95000 [A], shift/k_B:   0.00000000 [K], tailcorrection: no
    Ac_ -     Al_ [LENNARD_JONES] p_0/k_B:  64.94532 [K], p_1: 3.55500 [A], shift/k_B:   0.00000000 [K], tailcorrection: no
    Ac_ -     Am_ [LENNARD_JONES] p_0/k_B:  10.81037 [K], p_1: 3.05500 [A], shift/k_B:   0.00000000 [K], tailcorrection: no
    Ac_ -     Ar_ [LENNARD_JONES] p_0/k_B:  39.30812 [K], p_1: 3.27500 [A], shift/k_B:   0.00000000 [K], tailcorrection: no
    Ac_ -     As_ [LENNARD_JONES] p_0/k_B:  50.80159 [K], p_1: 3.43500 [A], shift/k_B:   0.00000000 [K], tailcorrection: no
    Ac_ -     At_ [LENNARD_JONES] p_0/k_B:  48.70292 [K], p_1: 3.66500 [A], shift/k_B:   0.00000000 [K], tailcorrection: no
    Ac_ -     Au_ [LENNARD_JONES] p_0/k_B:  18.04694 [K], p_1: 3.01500 [A], shift/k_B:   0.00000000 [K], tailcorrection: no
    Ac_ -      B_ [LENNARD_JONES] p_0/k_B:  38.77450 [K], p_1: 3.37000 [A], shift/k_B:   0.00000000 [K], tailcorrection: no
    Ac_ -     Ba_ [LENNARD_JONES] p_0/k_B:  55.13882 [K], p_1: 3.20000 [A], shift/k_B:   0.00000000 [K], tailcorrection: no
    Ac_ -     Be_ [LENNARD_JONES] p_0/k_B:  26.64549 [K], p_1: 2.77500 [A], shift/k_B:   0.00000000 [K], tailcorrection: no
    Ac_ -     Bh_ [LENNARD_JONES] p_0/k_B:  38.77450 [K], p_1: 3.37000 [A], shift/k_B:   0.00000000 [K], tailcorrection: no
    Ac_ -     Bi_ [LENNARD_JONES] p_0/k_B:  65.77582 [K], p_1: 3.49500 [A], shift/k_B:   0.00000000 [K], tailcorrection: no
    Ac_ -     Bk_ [LENNARD_JONES] p_0/k_B:  10.41940 [K], p_1: 3.03500 [A], shift/k_B:   0.00000000 [K], tailcorrection: no
    Ac_ -     Br_ [LENNARD_JONES] p_0/k_B:  45.78661 [K], p_1: 3.41500 [A], shift/k_B:   0.00000000 [K], tailcorrection: no
    Ac_ -      C_ [LENNARD_JONES] p_0/k_B:  29.61381 [K], p_1: 3.26500 [A], shift/k_B:   0.00000000 [K], tailcorrection: no
    Ac_ -     Ca_ [LENNARD_JONES] p_0/k_B:  44.58531 [K], p_1: 3.06500 [A], shift/k_B:   0.00000000 [K], tailcorrection: no
    Ac_ -     Cd_ [LENNARD_JONES] p_0/k_B:  43.63888 [K], p_1: 2.82000 [A], shift/k_B:   0.00000000 [K], tailcorrection: no
    Ac_ -     Ce_ [LENNARD_JONES] p_0/k_B:  10.41940 [K], p_1: 3.13500 [A], shift/k_B:   0.00000000 [K], tailcorrection: no
    Ac_ -     Cf_ [LENNARD_JONES] p_0/k_B:  10.41940 [K], p_1: 3.02500 [A], shift/k_B:   0.00000000 [K], tailcorrection: no
    Ac_ -     Cl_ [LENNARD_JONES] p_0/k_B:  43.54177 [K], p_1: 3.31000 [A], shift/k_B:   0.00000000 [K], tailcorrection: no
    Ac_ -     Cm_ [LENNARD_JONES] p_0/k_B:  10.41940 [K], p_1: 3.03000 [A], shift/k_B:   0.00000000 [K], tailcorrection: no
    Ac_ -     Co_ [LENNARD_JONES] p_0/k_B:  10.81037 [K], p_1: 2.83000 [A], shift/k_B:   0.00000000 [K], tailcorrection: no
    Ac_ -     Cr_ [LENNARD_JONES] p_0/k_B:  11.19509 [K], p_1: 2.89500 [A], shift/k_B:   0.00000000 [K], tailcorrection: no
    Ac_ -     Cs_ [LENNARD_JONES] p_0/k_B:  19.38618 [K], p_1: 3.56000 [A], shift/k_B:   0.00000000 [K], tailcorrection: no
    Ac_ -     Cu_ [LENNARD_JONES] p_0/k_B:   6.46777 [K], p_1: 3.10500 [A], shift/k_B:   0.00000000 [K], tailcorrection: no
    Ac_ -     Dy_ [LENNARD_JONES] p_0/k_B:   7.64408 [K], p_1: 3.07500 [A], shift/k_B:   0.00000000 [K], tailcorrection: no
    Ac_ -     Er_ [LENNARD_JONES] p_0/k_B:   7.64408 [K], p_1: 3.06000 [A], shift/k_B:   0.00000000 [K], tailcorrection: no
    Ac_ -     Es_ [LENNARD_JONES] p_0/k_B:  10.01319 [K], p_1: 3.02000 [A], shift/k_B:   0.00000000 [K], tailcorrection: no
    Ac_ -     Eu_ [LENNARD_JONES] p_0/k_B:   8.17912 [K], p_1: 3.10500 [A], shift/k_B:   0.00000000 [K], tailcorrection: no
    Ac_ -      F_ [LENNARD_JONES] p_0/k_B:  20.43663 [K], p_1: 3.05000 [A], shift/k_B:   0.00000000 [K], tailcorrection: no
    Ac_ -     Fe_ [LENNARD_JONES] p_0/k_B:  10.41940 [K], p_1: 2.84500 [A], shift/k_B:   0.00000000 [K], tailcorrection: no
    Ac_ -     Fm_ [LENNARD_JONES] p_0/k_B:  10.01319 [K], p_1: 3.01500 [A], shift/k_B:   0.00000000 [K], tailcorrection: no
    Ac_ -     Fr_ [LENNARD_JONES] p_0/k_B:  20.43663 [K], p_1: 3.73500 [A], shift/k_B:   0.00000000 [K], tailcorrection: no
    Ac_ -     Ga_ [LENNARD_JONES] p_0/k_B:  58.87483 [K], p_1: 3.50000 [A], shift/k_B:   0.00000000 [K], tailcorrection: no
    Ac_ -     Gd_ [LENNARD_JONES] p_0/k_B:   8.67168 [K], p_1: 3.05000 [A], shift/k_B:   0.00000000 [K], tailcorrection: no
    Ac_ -     Ge_ [LENNARD_JONES] p_0/k_B:  56.26237 [K], p_1: 3.45500 [A], shift/k_B:   0.00000000 [K], tailcorrection: no
    Ac_ -      H_ [LENNARD_JONES] p_0/k_B:  19.17092 [K], p_1: 2.83500 [A], shift/k_B:   0.00000000 [K], tailcorrection: no
    Ac_ -      He [LENNARD_JONES] p_0/k_B:  13.45139 [K], p_1: 2.87000 [A], shift/k_B:   0.00000000 [K], tailcorrection: no
    Ac_ -     Hf_ [LENNARD_JONES] p_0/k_B:  24.52383 [K], p_1: 2.95000 [A], shift/k_B:   0.00000000 [K], tailcorrection: no
    Ac_ -     Hg_ [LENNARD_JONES] p_0/k_B:  56.70614 [K], p_1: 2.75500 [A], shift/k_B:   0.00000000 [K], tailcorrection: no
    Ac_ -     Ho_ [LENNARD_JONES] p_0/k_B:   7.64408 [K], p_1: 3.07000 [A], shift/k_B:   0.00000000 [K], tailcorrection: no
    Ac_ -     Hs_ [LENNARD_JONES] p_0/k_B:  19.17092 [K], p_1: 2.83500 [A], shift/k_B:   0.00000000 [K], tailcorrection: no
    Ac_ -      I_ [LENNARD_JONES] p_0/k_B:  53.21148 [K], p_1: 3.55500 [A], shift/k_B:   0.00000000 [K], tailcorrection: no
    Ac_ -     In_ [LENNARD_JONES] p_0/k_B:  70.73241 [K], p_1: 3.54000 [A], shift/k_B:   0.00000000 [K], tailcorrection: no
    Ac_ -     Ir_ [LENNARD_JONES] p_0/k_B:  24.69247 [K], p_1: 2.81500 [A], shift/k_B:   0.00000000 [K], tailcorrection: no
    Ac_ -      K_ [LENNARD_JONES] p_0/k_B:  17.09754 [K], p_1: 3.25000 [A], shift/k_B:   0.00000000 [K], tailcorrection: no
    Ac_ -     Kr_ [LENNARD_JONES] p_0/k_B:  42.86553 [K], p_1: 3.39500 [A], shift/k_B:   0.00000000 [K], tailcorrection: no
    Ac_ -     La_ [LENNARD_JONES] p_0/k_B:  11.91344 [K], p_1: 3.12000 [A], shift/k_B:   0.00000000 [K], tailcorrection: no
    Ac_ -     Li_ [LENNARD_JONES] p_0/k_B:  14.45088 [K], p_1: 2.64000 [A], shift/k_B:   0.00000000 [K], tailcorrection: no
    Ac_ -     Lu_ [LENNARD_JONES] p_0/k_B:  18.50562 [K], p_1: 3.17000 [A], shift/k_B:   0.00000000 [K], tailcorrection: no
    Ac_ -     Md_ [LENNARD_JONES] p_0/k_B:   9.58113 [K], p_1: 3.01000 [A], shift/k_B:   0.00000000 [K], tailcorrection: no
    Ac_ -     Mg_ [LENNARD_JONES] p_0/k_B:  30.44848 [K], p_1: 2.89500 [A], shift/k_B:   0.00000000 [K], tailcorrection: no
    Ac_ -     Mn_ [LENNARD_JONES] p_0/k_B:  10.41940 [K], p_1: 2.87000 [A], shift/k_B:   0.00000000 [K], tailcorrection: no
    Ac_ -     Mo_ [LENNARD_JONES] p_0/k_B:  21.62841 [K], p_1: 2.91000 [A], shift/k_B:   0.00000000 [K], tailcorrection: no
    Ac_ -      N_ [LENNARD_JONES] p_0/k_B:  24.00733 [K], p_1: 3.18000 [A], shift/k_B:   0.00000000 [K], tailcorrection: no
    Ac_ -     Na_ [LENNARD_JONES] p_0/k_B:  15.82700 [K], p_1: 2.88000 [A], shift/k_B:   0.00000000 [K], tailcorrection: no
    Ac_ -     Nb_ [LENNARD_JONES] p_0/k_B:  22.20032 [K], p_1: 2.96000 [A], shift/k_B:   0.00000000 [K], tailcorrection: no
    Ac_ -     Nd_ [LENNARD_JONES] p_0/k_B:   9.13772 [K], p_1: 3.14000 [A], shift/k_B:   0.00000000 [K], tailcorrection: no
    Ac_ -     Ne_ [LENNARD_JONES] p_0/k_B:  18.72853 [K], p_1: 2.88000 [A], shift/k_B:   0.00000000 [K], tailcorrection: no
    Ac_ -     Ni_ [LENNARD_JONES] p_0/k_B:  11.19509 [K], p_1: 2.81000 [A], shift/k_B:   0.00000000 [K], tailcorrection: no
    Ac_ -     No_ [LENNARD_JONES] p_0/k_B:   9.58113 [K], p_1: 2.99500 [A], shift/k_B:   0.00000000 [K], tailcorrection: no
    Ac_ -     Np_ [LENNARD_JONES] p_0/k_B:  12.59746 [K], p_1: 3.07500 [A], shift/k_B:   0.00000000 [K], tailcorrection: no
    Ac_ -      O_ [LENNARD_JONES] p_0/k_B:  22.38647 [K], p_1: 3.11000 [A], shift/k_B:   0.00000000 [K], tailcorrection: no
    Ac_ -     Os_ [LENNARD_JONES] p_0/k_B:  17.58101 [K], p_1: 2.94000 [A], shift/k_B:   0.00000000 [K], tailcorrection: no
    Ac_ -      P_ [LENNARD_JONES] p_0/k_B:  50.47213 [K], p_1: 3.39500 [A], shift/k_B:   0.00000000 [K], tailcorrection: no
    Ac_ -     Pa_ [LENNARD_JONES] p_0/k_B:  13.55588 [K], p_1: 3.07500 [A], shift/k_B:   0.00000000 [K], tailcorrection: no
    Ac_ -     Pb_ [LENNARD_JONES] p_0/k_B:  74.41501 [K], p_1: 3.46500 [A], shift/k_B:   0.00000000 [K], tailcorrection: no
    Ac_ -     Pd_ [LENNARD_JONES] p_0/k_B:  20.02224 [K], p_1: 2.84000 [A], shift/k_B:   0.00000000 [K], tailcorrection: no
    Ac_ -     Pm_ [LENNARD_JONES] p_0/k_B:   8.67168 [K], p_1: 3.13000 [A], shift/k_B:   0.00000000 [K], tailcorrection: no
    Ac_ -     Po_ [LENNARD_JONES] p_0/k_B:  52.10021 [K], p_1: 3.65000 [A], shift/k_B:   0.00000000 [K], tailcorrection: no
    Ac_ -     Pr_ [LENNARD_JONES] p_0/k_B:   9.13772 [K], p_1: 3.15500 [A], shift/k_B:   0.00000000 [K], tailcorrection: no
    Ac_ -     Pt_ [LENNARD_JONES] p_0/k_B:  25.84860 [K], p_1: 2.77500 [A], shift/k_B:   0.00000000 [K], tailcorrection: no
    Ac_ -     Pu_ [LENNARD_JONES] p_0/k_B:  11.55984 [K], p_1: 3.07500 [A], shift/k_B:   0.00000000 [K], tailcorrection: no
    Ac_ -     Ra_ [LENNARD_JONES] p_0/k_B:  58.08857 [K], p_1: 3.19000 [A], shift/k_B:   0.00000000 [K], tailcorrection: no
    Ac_ -     Rb_ [LENNARD_JONES] p_0/k_B:  18.27999 [K], p_1: 3.38500 [A], shift/k_B:   0.00000000 [K], tailcorrection: no
    Ac_ -     Re_ [LENNARD_JONES] p_0/k_B:  23.47948 [K], p_1: 2.86500 [A], shift/k_B:   0.00000000 [K], tailcorrection: no
    Ac_ -     Rh_ [LENNARD_JONES] p_0/k_B:  21.04096 [K], p_1: 2.85500 [A], shift/k_B:   0.00000000 [K], tailcorrection: no
    Ac_ -     Rn_ [LENNARD_JONES] p_0/k_B:  45.51206 [K], p_1: 3.67500 [A], shift/k_B:   0.00000000 [K], tailcorrection: no
    Ac_ -     Ru_ [LENNARD_JONES] p_0/k_B:  21.62841 [K], p_1: 2.87000 [A], shift/k_B:   0.00000000 [K], tailcorrection: no
    Ac_ -      S_ [LENNARD_JONES] p_0/k_B:  47.83802 [K], p_1: 3.34500 [A], shift/k_B:   0.00000000 [K], tailcorrection: no
    Ac_ -     Sb_ [LENNARD_JONES] p_0/k_B:  61.23811 [K], p_1: 3.52000 [A], shift/k_B:   0.00000000 [K], tailcorrection: no
    Ac_ -     Sc_ [LENNARD_JONES] p_0/k_B:  12.59746 [K], p_1: 3.02000 [A], shift/k_B:   0.00000000 [K], tailcorrection: no
    Ac_ -     Se_ [LENNARD_JONES] p_0/k_B:  49.30083 [K], p_1: 3.42500 [A], shift/k_B:   0.00000000 [K], tailcorrection: no
    Ac_ -     Sg_ [LENNARD_JONES] p_0/k_B:  47.83802 [K], p_1: 3.34500 [A], shift/k_B:   0.00000000 [K], tailcorrection: no
    Ac_ -     Si_ [LENNARD_JONES] p_0/k_B:  57.94551 [K], p_1: 3.46500 [A], shift/k_B:   0.00000000 [K], tailcorrection: no
    Ac_ -     Sm_ [LENNARD_JONES] p_0/k_B:   8.17912 [K], p_1: 3.12000 [A], shift/k_B:   0.00000000 [K], tailcorrection: no
    Ac_ -     Sn_ [LENNARD_JONES] p_0/k_B:  68.81604 [K], p_1: 3.50500 [A], shift/k_B:   0.00000000 [K], tailcorrection: no
    Ac_ -     Sr_ [LENNARD_JONES] p_0/k_B:  44.30332 [K], p_1: 3.17000 [A], shift/k_B:   0.00000000 [K], tailcorrection: no
    Ac_ -     Ta_ [LENNARD_JONES] p_0/k_B:  26.00865 [K], p_1: 2.96000 [A], shift/k_B:   0.00000000 [K], tailcorrection: no
    Ac_ -     Tb_ [LENNARD_JONES] p_0/k_B:   7.64408 [K], p_1: 3.08500 [A], shift/k_B:   0.00000000 [K], tailcorrection: no
    Ac_ -     Tc_ [LENNARD_JONES] p_0/k_B:  20.02224 [K], p_1: 2.88500 [A], shift/k_B:   0.00000000 [K], tailcorrection: no
    Ac_ -     Te_ [LENNARD_JONES] p_0/k_B:  57.65544 [K], p_1: 3.54000 [A], shift/k_B:   0.00000000 [K], tailcorrection: no
    Ac_ -     Th_ [LENNARD_JONES] p_0/k_B:  14.73526 [K], p_1: 3.06500 [A], shift/k_B:   0.00000000 [K], tailcorrection: no
    Ac_ -     Ti_ [LENNARD_JONES] p_0/k_B:  11.91344 [K], p_1: 2.96500 [A], shift/k_B:   0.00000000 [K], tailcorrection: no
    Ac_ -     Tl_ [LENNARD_JONES] p_0/k_B:  75.36262 [K], p_1: 3.48500 [A], shift/k_B:   0.00000000 [K], tailcorrection: no
    Ac_ -     Tm_ [LENNARD_JONES] p_0/k_B:   7.08040 [K], p_1: 3.05500 [A], shift/k_B:   0.00000000 [K], tailcorrection: no
    Ac_ -      U_ [LENNARD_JONES] p_0/k_B:  13.55588 [K], p_1: 3.06000 [A], shift/k_B:   0.00000000 [K], tailcorrection: no
    Ac_ -      V_ [LENNARD_JONES] p_0/k_B:  11.55984 [K], p_1: 2.95000 [A], shift/k_B:   0.00000000 [K], tailcorrection: no
    Ac_ -      W_ [LENNARD_JONES] p_0/k_B:  23.65557 [K], p_1: 2.91500 [A], shift/k_B:   0.00000000 [K], tailcorrection: no
    Ac_ -     Xe_ [LENNARD_JONES] p_0/k_B:  52.65799 [K], p_1: 3.51000 [A], shift/k_B:   0.00000000 [K], tailcorrection: no
    Ac_ -      Y_ [LENNARD_JONES] p_0/k_B:  24.52383 [K], p_1: 3.04000 [A], shift/k_B:   0.00000000 [K], tailcorrection: no
    Ac_ -     Yb_ [LENNARD_JONES] p_0/k_B:  43.63888 [K], p_1: 3.04500 [A], shift/k_B:   0.00000000 [K], tailcorrection: no
    Ac_ -     Zn_ [LENNARD_JONES] p_0/k_B:  32.18189 [K], p_1: 2.78000 [A], shift/k_B:   0.00000000 [K], tailcorrection: no
    Ac_ -     Zr_ [LENNARD_JONES] p_0/k_B:  24.00733 [K], p_1: 2.94000 [A], shift/k_B:   0.00000000 [K], tailcorrection: no
    Ac_ - CH4_sp3 [LENNARD_JONES] p_0/k_B:  49.56612 [K], p_1: 3.41500 [A], shift/k_B:   0.00000000 [K], tailcorrection: no
    Ac_ - CH3_sp3 [LENNARD_JONES_CONTINUOUS_FRACTIONAL] p_0/k_B:  40.33361 [K], p_1: 3.42500 [A], shift/k_B:   0.00000000 [K], tailcorrection: no
    Ac_ - CH2_sp3 [LENNARD_JONES_CONTINUOUS_FRACTIONAL] p_0/k_B:  27.63331 [K], p_1: 3.52500 [A], shift/k_B:   0.00000000 [K], tailcorrection: no
    Ac_ -  CH_sp3 [LENNARD_JONES] p_0/k_B:  12.88410 [K], p_1: 3.89000 [A], shift/k_B:   0.00000000 [K], tailcorrection: no
    Ac_ -   C_sp3 [LENNARD_JONES] p_0/k_B:   2.88097 [K], p_1: 4.75000 [A], shift/k_B:   0.00000000 [K], tailcorrection: no
    Ac_ -    H_h2 [LENNARD_JONES] p_0/k_B:   0.00000 [K], p_1: 1.55000 [A], shift/k_B:   0.00000000 [K], tailcorrection: no
    Ac_ -   H_com [LENNARD_JONES] p_0/k_B:  24.68238 [K], p_1: 3.02900 [A], shift/k_B:   0.00000000 [K], tailcorrection: no
    Ac_ -   C_co2 [LENNARD_JONES] p_0/k_B:  21.17073 [K], p_1: 2.95000 [A], shift/k_B:   0.00000000 [K], tailcorrection: no
    Ac_ -   O_co2 [LENNARD_JONES] p_0/k_B:  36.21326 [K], p_1: 3.07500 [A], shift/k_B:   0.00000000 [K], tailcorrection: no
    Ac_ -    N_n2 [LENNARD_JONES] p_0/k_B:  24.44586 [K], p_1: 3.20500 [A], shift/k_B:   0.00000000 [K], tailcorrection: no
    Ac_ -   N_com [LENNARD_JONES] p_0/k_B:   0.00000 [K], p_1: 1.55000 [A], shift/k_B:   0.00000000 [K], tailcorrection: no
    Ac_ -      Ow [LENNARD_JONES] p_0/k_B:  35.98333 [K], p_1: 3.12500 [A], shift/k_B:   0.00000000 [K], tailcorrection: no
    Ac_ -      Hw [LENNARD_JONES] p_0/k_B:  19.17092 [K], p_1: 2.83500 [A], shift/k_B:   0.00000000 [K], tailcorrection: no
    Ac_ -       C [LENNARD_JONES] p_0/k_B:  29.61381 [K], p_1: 3.26500 [A], shift/k_B:   0.00000000 [K], tailcorrection: no
    Ac_ -       H [LENNARD_JONES] p_0/k_B:  19.17092 [K], p_1: 2.83500 [A], shift/k_B:   0.00000000 [K], tailcorrection: no
    Ac_ -       N [LENNARD_JONES] p_0/k_B:  24.00733 [K], p_1: 3.18000 [A], shift/k_B:   0.00000000 [K], tailcorrection: no
    Ac_ -      Zn [LENNARD_JONES] p_0/k_B:  32.18189 [K], p_1: 2.78000 [A], shift/k_B:   0.00000000 [K], tailcorrection: no
    Ag_ -     Ag_ [LENNARD_JONES] p_0/k_B:  18.11000 [K], p_1: 2.80000 [A], shift/k_B:   0.00000000 [K], tailcorrection: no
    Ag_ -     Al_ [LENNARD_JONES] p_0/k_B:  67.83487 [K], p_1: 3.40500 [A], shift/k_B:   0.00000000 [K], tailcorrection: no
    Ag_ -     Am_ [LENNARD_JONES] p_0/k_B:  11.29134 [K], p_1: 2.90500 [A], shift/k_B:   0.00000000 [K], tailcorrection: no
    Ag_ -     Ar_ [LENNARD_JONES] p_0/k_B:  41.05702 [K], p_1: 3.12500 [A], shift/k_B:   0.00000000 [K], tailcorrection: no
    Ag_ -     As_ [LENNARD_JONES] p_0/k_B:  53.06187 [K], p_1: 3.28500 [A], shift/k_B:   0.00000000 [K], tailcorrection: no
    Ag_ -     At_ [LENNARD_JONES] p_0/k_B:  50.86981 [K], p_1: 3.51500 [A], shift/k_B:   0.00000000 [K], tailcorrection: no
    Ag_ -     Au_ [LENNARD_JONES] p_0/k_B:  18.84989 [K], p_1: 2.86500 [A], shift/k_B:   0.00000000 [K], tailcorrection: no
    Ag_ -      B_ [LENNARD_JONES] p_0/k_B:  40.49966 [K], p_1: 3.22000 [A], shift/k_B:   0.00000000 [K], tailcorrection: no
    Ag_ -     Ba_ [LENNARD_JONES] p_0/k_B:  57.59207 [K], p_1: 3.05000 [A], shift/k_B:   0.00000000 [K], tailcorrection: no
    Ag_ -     Be_ [LENNARD_JONES] p_0/k_B:  27.83100 [K], p_1: 2.62500 [A], shift/k_B:   0.00000000 [K], tailcorrection: no
    Ag_ -     Bh_ [LENNARD_JONES] p_0/k_B:  40.49966 [K], p_1: 3.22000 [A], shift/k_B:   0.00000000 [K], tailcorrection: no
    Ag_ -     Bi_ [LENNARD_JONES] p_0/k_B:  68.70232 [K], p_1: 3.34500 [A], shift/k_B:   0.00000000 [K], tailcorrection: no
    Ag_ -     Bk_ [LENNARD_JONES] p_0/k_B:  10.88299 [K], p_1: 2.88500 [A], shift/k_B:   0.00000000 [K], tailcorrection: no
    Ag_ -     Br_ [LENNARD_JONES] p_0/k_B:  47.82376 [K], p_1: 3.26500 [A], shift/k_B:   0.00000000 [K], tailcorrection: no
    Ag_ -      C_ [LENNARD_JONES] p_0/k_B:  30.93140 [K], p_1: 3.11500 [A], shift/k_B:   0.00000000 [K], tailcorrection: no
    Ag_ -     Ca_ [LENNARD_JONES] p_0/k_B:  46.56901 [K], p_1: 2.91500 [A], shift/k_B:   0.00000000 [K], tailcorrection: no
    Ag_ -     Cd_ [LENNARD_JONES] p_0/k_B:  45.58047 [K], p_1: 2.67000 [A], shift/k_B:   0.00000000 [K], tailcorrection: no
    Ag_ -     Ce_ [LENNARD_JONES] p_0/k_B:  10.88299 [K], p_1: 2.98500 [A], shift/k_B:   0.00000000 [K], tailcorrection: no
    Ag_ -     Cf_ [LENNARD_JONES] p_0/k_B:  10.88299 [K], p_1: 2.87500 [A], shift/k_B:   0.00000000 [K], tailcorrection: no
    Ag_ -     Cl_ [LENNARD_JONES] p_0/k_B:  45.47904 [K], p_1: 3.16000 [A], shift/k_B:   0.00000000 [K], tailcorrection: no
    Ag_ -     Cm_ [LENNARD_JONES] p_0/k_B:  10.88299 [K], p_1: 2.88000 [A], shift/k_B:   0.00000000 [K], tailcorrection: no
    Ag_ -     Co_ [LENNARD_JONES] p_0/k_B:  11.29134 [K], p_1: 2.68000 [A], shift/k_B:   0.00000000 [K], tailcorrection: no
    Ag_ -     Cr_ [LENNARD_JONES] p_0/k_B:  11.69318 [K], p_1: 2.74500 [A], shift/k_B:   0.00000000 [K], tailcorrection: no
    Ag_ -     Cs_ [LENNARD_JONES] p_0/k_B:  20.24871 [K], p_1: 3.41000 [A], shift/k_B:   0.00000000 [K], tailcorrection: no
    Ag_ -     Cu_ [LENNARD_JONES] p_0/k_B:   6.75553 [K], p_1: 2.95500 [A], shift/k_B:   0.00000000 [K], tailcorrection: no
    Ag_ -     Dy_ [LENNARD_JONES] p_0/k_B:   7.98418 [K], p_1: 2.92500 [A], shift/k_B:   0.00000000 [K], tailcorrection: no
    Ag_ -     Er_ [LENNARD_JONES] p_0/k_B:   7.98418 [K], p_1: 2.91000 [A], shift/k_B:   0.00000000 [K], tailcorrection: no
    Ag_ -     Es_ [LENNARD_JONES] p_0/k_B:  10.45870 [K], p_1: 2.87000 [A], shift/k_B:   0.00000000 [K], tailcorrection: no
    Ag_ -     Eu_ [LENNARD_JONES] p_0/k_B:   8.54303 [K], p_1: 2.95500 [A], shift/k_B:   0.00000000 [K], tailcorrection: no
    Ag_ -      F_ [LENNARD_JONES] p_0/k_B:  21.34590 [K], p_1: 2.90000 [A], shift/k_B:   0.00000000 [K], tailcorrection: no
    Ag_ -     Fe_ [LENNARD_JONES] p_0/k_B:  10.88299 [K], p_1: 2.69500 [A], shift/k_B:   0.00000000 [K], tailcorrection: no
    Ag_ -     Fm_ [LENNARD_JONES] p_0/k_B:  10.45870 [K], p_1: 2.86500 [A], shift/k_B:   0.00000000 [K], tailcorrection: no
    Ag_ -     Fr_ [LENNARD_JONES] p_0/k_B:  21.34590 [K], p_1: 3.58500 [A], shift/k_B:   0.00000000 [K], tailcorrection: no
    Ag_ -     Ga_ [LENNARD_JONES] p_0/k_B:  61.49430 [K], p_1: 3.35000 [A], shift/k_B:   0.00000000 [K], tailcorrection: no
    Ag_ -     Gd_ [LENNARD_JONES] p_0/k_B:   9.05750 [K], p_1: 2.90000 [A], shift/k_B:   0.00000000 [K], tailcorrection: no
    Ag_ -     Ge_ [LENNARD_JONES] p_0/k_B:  58.76560 [K], p_1: 3.30500 [A], shift/k_B:   0.00000000 [K], tailcorrection: no
[...]
	Block[ 2]            0.00000 [K]
	Block[ 3]            0.00000 [K]
	Block[ 4]            0.00000 [K]
	------------------------------------------------------------------------------
	Average              0.00000 [K] +/-            0.00000 [K]

Average Cation Bend angle inversion energy:
===========================================
	Block[ 0]            0.00000 [K]
	Block[ 1]            0.00000 [K]
	Block[ 2]            0.00000 [K]
	Block[ 3]            0.00000 [K]
	Block[ 4]            0.00000 [K]
	------------------------------------------------------------------------------
	Average              0.00000 [K] +/-            0.00000 [K]

Average Cation Torsion energy:
==============================
	Block[ 0]            0.00000 [K]
	Block[ 1]            0.00000 [K]
	Block[ 2]            0.00000 [K]
	Block[ 3]            0.00000 [K]
	Block[ 4]            0.00000 [K]
	------------------------------------------------------------------------------
	Average              0.00000 [K] +/-            0.00000 [K]

Average Cation Improper Torsion energy:
=======================================
	Block[ 0]            0.00000 [K]
	Block[ 1]            0.00000 [K]
	Block[ 2]            0.00000 [K]
	Block[ 3]            0.00000 [K]
	Block[ 4]            0.00000 [K]
	------------------------------------------------------------------------------
	Average              0.00000 [K] +/-            0.00000 [K]

Average Cation Bond-Bond cross term energy:
=================================================
	Block[ 0]            0.00000 [K]
	Block[ 1]            0.00000 [K]
	Block[ 2]            0.00000 [K]
	Block[ 3]            0.00000 [K]
	Block[ 4]            0.00000 [K]
	------------------------------------------------------------------------------
	Average              0.00000 [K] +/-            0.00000 [K]

Average Cation Bend-Bend cross term energy:
===========================================
	Block[ 0]            0.00000 [K]
	Block[ 1]            0.00000 [K]
	Block[ 2]            0.00000 [K]
	Block[ 3]            0.00000 [K]
	Block[ 4]            0.00000 [K]
	------------------------------------------------------------------------------
	Average              0.00000 [K] +/-            0.00000 [K]

Average Cation Bond-Bend cross term energy:
==============================================
	Block[ 0]            0.00000 [K]
	Block[ 1]            0.00000 [K]
	Block[ 2]            0.00000 [K]
	Block[ 3]            0.00000 [K]
	Block[ 4]            0.00000 [K]
	------------------------------------------------------------------------------
	Average              0.00000 [K] +/-            0.00000 [K]

Average Cation Bond-Torsion cross term energy:
==============================================
	Block[ 0]            0.00000 [K]
	Block[ 1]            0.00000 [K]
	Block[ 2]            0.00000 [K]
	Block[ 3]            0.00000 [K]
	Block[ 4]            0.00000 [K]
	------------------------------------------------------------------------------
	Average              0.00000 [K] +/-            0.00000 [K]

Average Cation Bend-Torsion cross term energy:
==============================================
	Block[ 0]            0.00000 [K]
	Block[ 1]            0.00000 [K]
	Block[ 2]            0.00000 [K]
	Block[ 3]            0.00000 [K]
	Block[ 4]            0.00000 [K]
	------------------------------------------------------------------------------
	Average              0.00000 [K] +/-            0.00000 [K]

Average Cation Intra Van der Waals energy:
==========================================
	Block[ 0]            0.00000 [K]
	Block[ 1]            0.00000 [K]
	Block[ 2]            0.00000 [K]
	Block[ 3]            0.00000 [K]
	Block[ 4]            0.00000 [K]
	------------------------------------------------------------------------------
	Average              0.00000 [K] +/-            0.00000 [K]

Average Cation Intra charge-charge Coulomb energy:
====================================
	Block[ 0]            0.00000 [K]
	Block[ 1]            0.00000 [K]
	Block[ 2]            0.00000 [K]
	Block[ 3]            0.00000 [K]
	Block[ 4]            0.00000 [K]
	------------------------------------------------------------------------------
	Average              0.00000 [K] +/-            0.00000 [K]

Average Cation Intra charge-bonddipole Coulomb energy:
====================================
	Block[ 0]            0.00000 [K]
	Block[ 1]            0.00000 [K]
	Block[ 2]            0.00000 [K]
	Block[ 3]            0.00000 [K]
	Block[ 4]            0.00000 [K]
	------------------------------------------------------------------------------
	Average              0.00000 [K] +/-            0.00000 [K]

Average Cation Intra bonddipole-bonddipole Coulomb energy:
====================================
	Block[ 0]            0.00000 [K]
	Block[ 1]            0.00000 [K]
	Block[ 2]            0.00000 [K]
	Block[ 3]            0.00000 [K]
	Block[ 4]            0.00000 [K]
	------------------------------------------------------------------------------
	Average              0.00000 [K] +/-            0.00000 [K]

Average Host-Host energy:
=========================
	Block[ 0] 0.00000            Van der Waals: 0.00000            Coulomb: 0.00000            [K]
	Block[ 1] 0.00000            Van der Waals: 0.00000            Coulomb: 0.00000            [K]
	Block[ 2] 0.00000            Van der Waals: 0.00000            Coulomb: 0.00000            [K]
	Block[ 3] 0.00000            Van der Waals: 0.00000            Coulomb: 0.00000            [K]
	Block[ 4] 0.00000            Van der Waals: 0.00000            Coulomb: 0.00000            [K]
	------------------------------------------------------------------------------
	Average   0.00000            Van der Waals: 0.000000           Coulomb: 0.00000            [K]
	      +/- 0.00000                       +/- 0.000000                +/- 0.00000            [K]

Average Adsorbate-Adsorbate energy:
===================================
	Block[ 0] -33701.35499       Van der Waals: -33701.35499       Coulomb: 0.00000            [K]
	Block[ 1] -37633.55844       Van der Waals: -37633.55844       Coulomb: 0.00000            [K]
	Block[ 2] -36327.87049       Van der Waals: -36327.87049       Coulomb: 0.00000            [K]
	Block[ 3] -36569.55758       Van der Waals: -36569.55758       Coulomb: 0.00000            [K]
	Block[ 4] -36709.94493       Van der Waals: -36709.94493       Coulomb: 0.00000            [K]
	------------------------------------------------------------------------------
	Average   -36188.45729       Van der Waals: -36188.457287      Coulomb: 0.00000            [K]
	      +/- 2639.79060                    +/- 2639.790598             +/- 0.00000            [K]

Average Cation-Cation energy:
=============================
	Block[ 0] 0.00000            Van der Waals: 0.00000            Coulomb: 0.00000            [K]
	Block[ 1] 0.00000            Van der Waals: 0.00000            Coulomb: 0.00000            [K]
	Block[ 2] 0.00000            Van der Waals: 0.00000            Coulomb: 0.00000            [K]
	Block[ 3] 0.00000            Van der Waals: 0.00000            Coulomb: 0.00000            [K]
	Block[ 4] 0.00000            Van der Waals: 0.00000            Coulomb: 0.00000            [K]
	------------------------------------------------------------------------------
	Average   0.00000            Van der Waals: 0.000000           Coulomb: 0.00000            [K]
	      +/- 0.00000                       +/- 0.000000                +/- 0.00000            [K]

Average Host-Adsorbate energy:
==============================
	Block[ 0] -91487.07828       Van der Waals: -91487.07828       Coulomb: 0.00000            [K]
	Block[ 1] -95059.04671       Van der Waals: -95059.04671       Coulomb: 0.00000            [K]
	Block[ 2] -94161.78596       Van der Waals: -94161.78596       Coulomb: 0.00000            [K]
	Block[ 3] -95336.77399       Van der Waals: -95336.77399       Coulomb: 0.00000            [K]
	Block[ 4] -95493.64502       Van der Waals: -95493.64502       Coulomb: 0.00000            [K]
	------------------------------------------------------------------------------
	Average   -94307.66599       Van der Waals: -94307.665991      Coulomb: 0.00000            [K]
	      +/- 2967.44719                    +/- 2967.447189             +/- 0.00000            [K]

Average Host-Cation energy:
===========================
	Block[ 0] 0.00000            Van der Waals: 0.00000            Coulomb: 0.00000            [K]
	Block[ 1] 0.00000            Van der Waals: 0.00000            Coulomb: 0.00000            [K]
	Block[ 2] 0.00000            Van der Waals: 0.00000            Coulomb: 0.00000            [K]
	Block[ 3] 0.00000            Van der Waals: 0.00000            Coulomb: 0.00000            [K]
	Block[ 4] 0.00000            Van der Waals: 0.00000            Coulomb: 0.00000            [K]
	------------------------------------------------------------------------------
	Average   0.00000            Van der Waals: 0.000000           Coulomb: 0.00000            [K]
	      +/- 0.00000                       +/- 0.000000                +/- 0.00000            [K]

Average Adsorbate-Cation energy:
================================
	Block[ 0] 0.00000            Van der Waals: 0.00000            Coulomb: 0.00000            [K]
	Block[ 1] 0.00000            Van der Waals: 0.00000            Coulomb: 0.00000            [K]
	Block[ 2] 0.00000            Van der Waals: 0.00000            Coulomb: 0.00000            [K]
	Block[ 3] 0.00000            Van der Waals: 0.00000            Coulomb: 0.00000            [K]
	Block[ 4] 0.00000            Van der Waals: 0.00000            Coulomb: 0.00000            [K]
	------------------------------------------------------------------------------
	Average   0.00000            Van der Waals: 0.000000           Coulomb: 0.00000            [K]
	      +/- 0.00000                       +/- 0.000000                +/- 0.00000            [K]

Host polarization energy:
=======================
	Block[ 0]            0.00000 [K]
	Block[ 1]            0.00000 [K]
	Block[ 2]            0.00000 [K]
	Block[ 3]            0.00000 [K]
	Block[ 4]            0.00000 [K]
	------------------------------------------------------------------------------
	Average              0.00000 [K] +/-            0.00000 [K]

Adsorbate polarization energy:
=======================
	Block[ 0]            0.00000 [K]
	Block[ 1]            0.00000 [K]
	Block[ 2]            0.00000 [K]
	Block[ 3]            0.00000 [K]
	Block[ 4]            0.00000 [K]
	------------------------------------------------------------------------------
	Average              0.00000 [K] +/-            0.00000 [K]

Cation polarization energy:
=======================
	Block[ 0]            0.00000 [K]
	Block[ 1]            0.00000 [K]
	Block[ 2]            0.00000 [K]
	Block[ 3]            0.00000 [K]
	Block[ 4]            0.00000 [K]
	------------------------------------------------------------------------------
	Average              0.00000 [K] +/-            0.00000 [K]

Host back-polarization energy:
=======================
	Block[ 0]            0.00000 [K]
	Block[ 1]            0.00000 [K]
	Block[ 2]            0.00000 [K]
	Block[ 3]            0.00000 [K]
	Block[ 4]            0.00000 [K]
	------------------------------------------------------------------------------
	Average              0.00000 [K] +/-            0.00000 [K]

Adsorbate back-polarization energy:
=======================
	Block[ 0]            0.00000 [K]
	Block[ 1]            0.00000 [K]
	Block[ 2]            0.00000 [K]
	Block[ 3]            0.00000 [K]
	Block[ 4]            0.00000 [K]
	------------------------------------------------------------------------------
	Average              0.00000 [K] +/-            0.00000 [K]

Cation back-polarization energy:
=======================
	Block[ 0]            0.00000 [K]
	Block[ 1]            0.00000 [K]
	Block[ 2]            0.00000 [K]
	Block[ 3]            0.00000 [K]
	Block[ 4]            0.00000 [K]
	------------------------------------------------------------------------------
	Average              0.00000 [K] +/-            0.00000 [K]

Tail-correction energy:
=======================
	Block[ 0]            0.00000 [K]
	Block[ 1]            0.00000 [K]
	Block[ 2]            0.00000 [K]
	Block[ 3]            0.00000 [K]
	Block[ 4]            0.00000 [K]
	------------------------------------------------------------------------------
	Average              0.00000 [K] +/-            0.00000 [K]

Distance-constraints energy:
=======================
	Block[ 0]            0.00000 [K]
	Block[ 1]            0.00000 [K]
	Block[ 2]            0.00000 [K]
	Block[ 3]            0.00000 [K]
	Block[ 4]            0.00000 [K]
	------------------------------------------------------------------------------
	Average              0.00000 [K] +/-            0.00000 [K]

Angle-constraints energy:
=======================
	Block[ 0]            0.00000 [K]
	Block[ 1]            0.00000 [K]
	Block[ 2]            0.00000 [K]
	Block[ 3]            0.00000 [K]
	Block[ 4]            0.00000 [K]
	------------------------------------------------------------------------------
	Average              0.00000 [K] +/-            0.00000 [K]

Dihedral-constraints energy:
=======================
	Block[ 0]            0.00000 [K]
	Block[ 1]            0.00000 [K]
	Block[ 2]            0.00000 [K]
	Block[ 3]            0.00000 [K]
	Block[ 4]            0.00000 [K]
	------------------------------------------------------------------------------
	Average              0.00000 [K] +/-            0.00000 [K]

Inversion-bend constraints energy:
=======================
	Block[ 0]            0.00000 [K]
	Block[ 1]            0.00000 [K]
	Block[ 2]            0.00000 [K]
	Block[ 3]            0.00000 [K]
	Block[ 4]            0.00000 [K]
	------------------------------------------------------------------------------
	Average              0.00000 [K] +/-            0.00000 [K]

Out-of-plane-distance constraints energy:
=======================
	Block[ 0]            0.00000 [K]
	Block[ 1]            0.00000 [K]
	Block[ 2]            0.00000 [K]
	Block[ 3]            0.00000 [K]
	Block[ 4]            0.00000 [K]
	------------------------------------------------------------------------------
	Average              0.00000 [K] +/-            0.00000 [K]

Exclusion-constraints energy:
=======================
	Block[ 0]            0.00000 [K]
	Block[ 1]            0.00000 [K]
	Block[ 2]            0.00000 [K]
	Block[ 3]            0.00000 [K]
	Block[ 4]            0.00000 [K]
	------------------------------------------------------------------------------
	Average              0.00000 [K] +/-            0.00000 [K]

Total energy:
=============
	Block[ 0]       171069.27266 [K]
	Block[ 1]       179027.73910 [K]
	Block[ 2]       176719.99675 [K]
	Block[ 3]       177675.39784 [K]
	Block[ 4]       174687.98717 [K]
	------------------------------------------------------------------------------
	Average         175836.07871 [K] +/-         5541.96038 [K]

Number of molecules:
====================

Component 0 [hexane]
-------------------------------------------------------------
	Block[ 0] 85.91567           [-]
	Block[ 1] 90.48500           [-]
	Block[ 2] 89.42983           [-]
	Block[ 3] 89.98383           [-]
	Block[ 4] 89.38800           [-]
	------------------------------------------------------------------------------
	Average                                     89.0404666667 +/-       3.2265620190 [-]
	Average loading absolute [molecules/unit cell]       89.0404666667 +/-       3.2265620190 [-]
	Average loading absolute [mol/kg framework]         10.3165395345 +/-       0.3738407476 [-]
	Average loading absolute [milligram/gram framework]        889.0315083417 +/-      32.2158610109 [-]
	Average loading absolute [cm^3 (STP)/gr framework]        231.2346669259 +/-       8.3792574512 [-]
	Average loading absolute [cm^3 (STP)/cm^3 framework]         18.6700784770 +/-       0.6765481849 [-]

	Block[ 0] 85.91567           [-]
	Block[ 1] 90.48500           [-]
	Block[ 2] 89.42983           [-]
	Block[ 3] 89.98383           [-]
	Block[ 4] 89.38800           [-]
	------------------------------------------------------------------------------
	Average                                     89.0404666667 +/-       3.2265620190 [-]
	Average loading excess [molecules/unit cell]       89.0404666667 +/-       3.2265620190 [-]
	Average loading excess [mol/kg framework]         10.3165395345 +/-       0.3738407476 [-]
	Average loading excess [milligram/gram framework]        889.0315083417 +/-      32.2158610109 [-]
	Average loading excess [cm^3 (STP)/gr framework]        231.2346669259 +/-       8.3792574512 [-]
	Average loading excess [cm^3 (STP)/cm^3 framework]         18.6700784770 +/-       0.6765481849 [-]


Average Widom Rosenbluth factor:
================================
	Block[ 0] 0 [-]
	Block[ 1] 0 [-]
	Block[ 2] 0 [-]
	Block[ 3] 0 [-]
	Block[ 4] 0 [-]
	------------------------------------------------------------------------------
	[hexane] Average Widom Rosenbluth-weight:   0 +/- 0.000000 [-]

Average Widom chemical potential:
=================================
	Block[ 0] 0 [-]
	Block[ 1] 0 [-]
	Block[ 2] 0 [-]
	Block[ 3] 0 [-]
	Block[ 4] 0 [-]
	------------------------------------------------------------------------------
	[hexane] Average chemical potential:   0 +/- 0.000000 [K]

Average Widom Ideal-gas contribution:
=====================================
	Block[ 0] 0 [-]
	Block[ 1] 0 [-]
	Block[ 2] 0 [-]
	Block[ 3] 0 [-]
	Block[ 4] 0 [-]
	------------------------------------------------------------------------------
	[hexane] Average Widom Ideal-gas chemical potential:   0 +/- 0.000000 [-]

Average Widom excess contribution:
==================================
	Block[ 0] 0 [-]
	Block[ 1] 0 [-]
	Block[ 2] 0 [-]
	Block[ 3] 0 [-]
	Block[ 4] 0 [-]
	------------------------------------------------------------------------------
	[hexane] Average Widom excess chemical potential:   0 +/- 0.000000 [-]

Average Gibbs Widom Rosenbluth factor:
======================================
	Block[ 0] 0 [-]
	Block[ 1] 0 [-]
	Block[ 2] 0 [-]
	Block[ 3] 0 [-]
	Block[ 4] 0 [-]
	------------------------------------------------------------------------------
	[hexane] Average Gibbs Widom Rosenbluth-weight:   0 +/- 0.000000 [-]

Average Gibbs Widom chemical potential:
=======================================
	Block[ 0] 0 [-]
	Block[ 1] 0 [-]
	Block[ 2] 0 [-]
	Block[ 3] 0 [-]
	Block[ 4] 0 [-]
	------------------------------------------------------------------------------
	[hexane] Average Gibbs chemical potential:   0 +/- 0.000000 [K]

Average Gibbs Widom Ideal-gas contribution:
===========================================
	Block[ 0] 0 [-]
	Block[ 1] 0 [-]
	Block[ 2] 0 [-]
	Block[ 3] 0 [-]
	Block[ 4] 0 [-]
	------------------------------------------------------------------------------
	[hexane] Average Gibbs Ideal-gas chemical potential:   0 +/- 0.000000 [-]

Average Gibbs Widom excess contribution:
===========================================
	Block[ 0] 0 [-]
	Block[ 1] 0 [-]
	Block[ 2] 0 [-]
	Block[ 3] 0 [-]
	Block[ 4] 0 [-]
	------------------------------------------------------------------------------
	[hexane] Average Gibbs excess chemical potential:   0 +/- 0.000000 [-]

Average Henry coefficient:
==========================
	Block[ 0] 0 [mol/kg/Pa]
	Block[ 1] 0 [mol/kg/Pa]
	Block[ 2] 0 [mol/kg/Pa]
	Block[ 3] 0 [mol/kg/Pa]
	Block[ 4] 0 [mol/kg/Pa]
	------------------------------------------------------------------------------
	[hexane] Average Henry coefficient:  0 +/- 0 [mol/kg/Pa]

Average adsorption energy <U_gh>_1-<U_h>_0 obtained from Widom-insertion:
(Note: the total heat of adsorption is dH=<U_gh>_1-<U_h>_0 - <U_g> - RT)
=========================================================================

Simulation finished,  0 warnings


Wed Apr  7 09:31:27 2021
Simulation finished on Wednesday, April 07.
The end time was 09:31 AM.

